       N       E                     dE             d eps       ncg     rms          rms(c)
DAV:   1     0.622891306144E+03    0.62289E+03   -0.17198E+04  5296   0.131E+03
DAV:   2     0.615748658352E+02   -0.56132E+03   -0.54725E+03  6680   0.411E+02
DAV:   3    -0.176597511925E+02   -0.79235E+02   -0.76366E+02  8368   0.168E+02
DAV:   4    -0.221250873664E+02   -0.44653E+01   -0.44390E+01  7344   0.362E+01
DAV:   5    -0.222590992518E+02   -0.13401E+00   -0.13366E+00  8376   0.690E+00    0.174E+01
DAV:   6    -0.205769628384E+02    0.16821E+01   -0.13635E+01  7164   0.261E+01    0.867E+00
DAV:   7    -0.209340411729E+02   -0.35708E+00   -0.16233E+00  7172   0.903E+00    0.614E+00
DAV:   8    -0.211430434535E+02   -0.20900E+00   -0.36274E-01  6716   0.352E+00    0.439E+00
DAV:   9    -0.214352803812E+02   -0.29224E+00   -0.15517E-01  6592   0.264E+00    0.349E+00
DAV:  10    -0.218485760618E+02   -0.41330E+00   -0.14938E-01  6608   0.239E+00    0.280E+00
DAV:  11    -0.222683800355E+02   -0.41980E+00   -0.22194E-01  5968   0.257E+00    0.165E+00
DAV:  12    -0.224446915511E+02   -0.17631E+00   -0.86296E-02  6584   0.168E+00    0.945E-01
DAV:  13    -0.224966063492E+02   -0.51915E-01   -0.20648E-02  6976   0.779E-01    0.491E-01
DAV:  14    -0.225174696223E+02   -0.20863E-01   -0.10020E-02  6908   0.571E-01    0.194E-01
DAV:  15    -0.225190244044E+02   -0.15548E-02   -0.13686E-03  6576   0.250E-01    0.139E-01
DAV:  16    -0.225218103493E+02   -0.27859E-02   -0.54957E-04  6328   0.158E-01    0.992E-02
DAV:  17    -0.225259050233E+02   -0.40947E-02   -0.13708E-03  5576   0.182E-01    0.669E-02
DAV:  18    -0.225264199094E+02   -0.51489E-03   -0.43269E-04  6260   0.129E-01    0.527E-02
DAV:  19    -0.225268848096E+02   -0.46490E-03   -0.68836E-04  6264   0.889E-02    0.348E-02
DAV:  20    -0.225273330719E+02   -0.44826E-03   -0.26370E-04  6912   0.569E-02    0.208E-02
DAV:  21    -0.225276770398E+02   -0.34397E-03   -0.55856E-05  7240   0.311E-02    0.945E-03
DAV:  22    -0.225276172013E+02    0.59838E-04   -0.97673E-06  6172   0.163E-02    0.440E-03
DAV:  23    -0.225275881788E+02    0.29023E-04   -0.19067E-06  4924   0.757E-03    0.260E-03
DAV:  24    -0.225276302819E+02   -0.42103E-04   -0.41619E-06  4420   0.737E-03    0.139E-03
DAV:  25    -0.225276728699E+02   -0.42588E-04   -0.72084E-06  4404   0.756E-03    0.134E-03
DAV:  26    -0.225276947423E+02   -0.21872E-04   -0.28629E-06  5444   0.531E-03    0.943E-04
DAV:  27    -0.225276965027E+02   -0.17604E-05   -0.15938E-06  4724   0.364E-03    0.467E-04
DAV:  28    -0.225276963194E+02    0.18326E-06   -0.35333E-07  4912   0.225E-03    0.220E-04
DAV:  29    -0.225277087228E+02   -0.12403E-04   -0.19000E-07  4480   0.157E-03    0.143E-04
DAV:  30    -0.225277351203E+02   -0.26398E-04   -0.27204E-07  4504   0.166E-03    0.109E-04
DAV:  31    -0.225277457409E+02   -0.10621E-04   -0.32070E-07  4992   0.144E-03    0.895E-05
DAV:  32    -0.225277501268E+02   -0.43859E-05   -0.10793E-06  5944   0.192E-03    0.607E-05
DAV:  33    -0.225277832108E+02   -0.33084E-04   -0.12479E-05  5660   0.189E-03    0.231E-03
DAV:  34    -0.225277429964E+02    0.40214E-04   -0.13870E-02  3744   0.484E-03    0.402E-05
DAV:  35    -0.225425683685E+02   -0.14825E-01   -0.29960E-06  5144   0.275E-03    0.246E-01
DAV:  36    -0.225276998021E+02    0.14869E-01   -0.41877E+00  5056   0.183E-01    0.549E-04
DAV:  37    -0.225277301743E+02   -0.30372E-04   -0.50348E-06  5428   0.803E-03    0.310E-04
DAV:  38    -0.225277349701E+02   -0.47958E-05   -0.20736E-06  5020   0.358E-03    0.220E-04
DAV:  39    -0.225277411813E+02   -0.62112E-05   -0.87338E-07  4632   0.254E-03    0.198E-04
DAV:  40    -0.225613083136E+02   -0.33567E-01   -0.14374E-02  5416   0.277E-03    0.343E-01
DAV:  41    -0.225276961822E+02    0.33612E-01   -0.54489E+00  5420   0.242E-01    0.840E-04
DAV:  42    -0.225277501977E+02   -0.54016E-04   -0.50881E-06  5184   0.108E-02    0.514E-04
DAV:  43    -0.225277611521E+02   -0.10954E-04   -0.17032E-06  5104   0.468E-03    0.465E-04
DAV:  44    -0.225277623536E+02   -0.12015E-05   -0.76002E-07  4824   0.294E-03    0.448E-04
DAV:  45    -0.225277621401E+02    0.21345E-06   -0.21526E-07  4572   0.158E-03    0.436E-04
DAV:  46    -0.225277622262E+02   -0.86026E-07   -0.23833E-07  4484   0.152E-03
   1 F= -.22527762E+02 E0= -.22517274E+02  d E =-.225278E+02  mag=     0.0003
       N       E                     dE             d eps       ncg     rms          rms(c)
DAV:   1    -0.225539313088E+02   -0.26169E-01   -0.10101E+00  7508   0.144E+01    0.126E+00
DAV:   2    -0.225267199345E+02    0.27211E-01   -0.86651E-02  6888   0.263E+00    0.386E-01
DAV:   3    -0.225240981532E+02    0.26218E-02   -0.11859E-02  7728   0.778E-01    0.198E-01
DAV:   4    -0.225265173406E+02   -0.24192E-02   -0.42220E-04  7848   0.221E-01    0.119E-01
DAV:   5    -0.225303680252E+02   -0.38507E-02   -0.24624E-04  7424   0.128E-01    0.212E-02
DAV:   6    -0.225308833885E+02   -0.51536E-03   -0.22230E-05  6952   0.442E-02    0.173E-02
DAV:   7    -0.225311391015E+02   -0.25571E-03   -0.87333E-06  6148   0.211E-02    0.780E-03
DAV:   8    -0.225313422799E+02   -0.20318E-03   -0.25154E-06  5084   0.872E-03    0.250E-03
DAV:   9    -0.225313043682E+02    0.37912E-04   -0.27808E-07  4996   0.466E-03    0.112E-03
DAV:  10    -0.225313258864E+02   -0.21518E-04   -0.16669E-06  4780   0.402E-03    0.825E-04
DAV:  11    -0.225313048823E+02    0.21004E-04   -0.43346E-07  5732   0.274E-03    0.407E-04
DAV:  12    -0.225313156406E+02   -0.10758E-04   -0.21731E-07  4432   0.159E-03    0.251E-04
DAV:  13    -0.225313302794E+02   -0.14639E-04   -0.91913E-07  4780   0.276E-03    0.158E-04
DAV:  14    -0.225313343506E+02   -0.40712E-05   -0.77804E-08  4892   0.145E-03    0.967E-05
DAV:  15    -0.225313316876E+02    0.26630E-05   -0.22550E-07  5232   0.117E-03    0.570E-05
DAV:  16    -0.225313315399E+02    0.14768E-06   -0.46900E-07  5504   0.143E-03    0.493E-05
DAV:  17    -0.225313314107E+02    0.12922E-06   -0.22668E-07  5316   0.145E-03    0.473E-05
DAV:  18    -0.230415352934E+02   -0.51020E+00   -0.44323E-01  5992   0.295E-03    0.141E+00
DAV:  19    -0.225311087352E+02    0.51043E+00   -0.27794E+01  5404   0.175E+00    0.336E-03
DAV:  20    -0.225312128602E+02   -0.10412E-03   -0.31671E-05  5936   0.426E-02    0.801E-04
DAV:  21    -0.225312958125E+02   -0.82952E-04   -0.39192E-06  5284   0.147E-02    0.334E-04
DAV:  22    -0.225313328013E+02   -0.36989E-04   -0.38326E-06  5784   0.604E-03    0.241E-04
DAV:  23    -0.225313527840E+02   -0.19983E-04   -0.29161E-06  5324   0.457E-03    0.197E-04
DAV:  24    -0.225313503128E+02    0.24712E-05   -0.23485E-06  5324   0.283E-03    0.173E-04
DAV:  25    -0.225313539963E+02   -0.36835E-05   -0.55647E-05  4768   0.288E-03    0.152E-04
DAV:  26    -0.225313511480E+02    0.28483E-05   -0.69734E-07  5028   0.175E-03    0.108E-04
DAV:  27    -0.225784105921E+02   -0.47059E-01   -0.91162E-02  5328   0.213E-03    0.450E-01
DAV:  28    -0.225312720306E+02    0.47139E-01   -0.71483E+00  4852   0.318E-01    0.726E-04
DAV:  29    -0.225313148998E+02   -0.42869E-04   -0.39413E-06  5544   0.105E-02    0.266E-04
DAV:  30    -0.225313481177E+02   -0.33218E-04   -0.23771E-06  5188   0.450E-03    0.132E-04
DAV:  31    -0.225313445763E+02    0.35414E-05   -0.70456E-07  5096   0.238E-03    0.117E-04
DAV:  32    -0.225313429626E+02    0.16136E-05   -0.13032E-07  5120   0.112E-03    0.837E-05
DAV:  33    -0.225313405082E+02    0.24544E-05   -0.55602E-07  5148   0.142E-03    0.737E-05
DAV:  34    -0.225313418313E+02   -0.13231E-05   -0.76257E-08  5172   0.103E-03    0.630E-05
DAV:  35    -0.225313425567E+02   -0.72535E-06   -0.59836E-07  5464   0.155E-03    0.577E-05
DAV:  36    -0.225313434794E+02   -0.92271E-06   -0.31190E-07  4144   0.151E-03    0.525E-05
DAV:  37    -0.225320964074E+02   -0.75293E-03   -0.13349E-03  4624   0.165E-03    0.294E-02
DAV:  38    -0.225313589947E+02    0.73741E-03   -0.34753E-01  4488   0.246E-02    0.885E-05
DAV:  39    -0.233233693388E+02   -0.79201E+00   -0.68570E-02  5384   0.296E-03    0.171E+00
DAV:  40    -0.225311688775E+02    0.79220E+00   -0.28442E+01  5748   0.870E-01    0.568E-03
DAV:  41    -0.225311511799E+02    0.17698E-04   -0.18353E-05  6076   0.446E-02    0.202E-03
DAV:  42    -0.225312772938E+02   -0.12611E-03   -0.36392E-05  5312   0.172E-02    0.103E-03
DAV:  43    -0.225312873548E+02   -0.10061E-04   -0.39294E-05  4928   0.135E-02    0.792E-04
DAV:  44    -0.225312901145E+02   -0.27597E-05   -0.19605E-06  5708   0.564E-03    0.635E-04
DAV:  45    -0.225312913231E+02   -0.12086E-05   -0.25997E-07  4992   0.260E-03    0.590E-04
DAV:  46    -0.225312925703E+02   -0.12472E-05   -0.34370E-07  4852   0.285E-03    0.578E-04
DAV:  47    -0.225312944709E+02   -0.19006E-05   -0.21568E-06  4708   0.413E-03    0.570E-04
DAV:  48    -0.225312937864E+02    0.68452E-06   -0.18907E-06  4620   0.389E-03    0.562E-04
DAV:  49    -0.225312927762E+02    0.10102E-05   -0.45789E-07  4276   0.239E-03    0.559E-04
DAV:  50    -0.225312939091E+02   -0.11328E-05   -0.68627E-07  4280   0.235E-03    0.556E-04
DAV:  51    -0.225312932970E+02    0.61203E-06   -0.73985E-07  4440   0.287E-03    0.551E-04
DAV:  52    -0.225312934315E+02   -0.13445E-06   -0.68332E-07  3976   0.248E-03    0.548E-04
DAV:  53    -0.225312930127E+02    0.41879E-06   -0.54895E-07  3968   0.219E-03    0.545E-04
DAV:  54    -0.225312933369E+02   -0.32423E-06   -0.10432E-07  3724   0.919E-04    0.544E-04
DAV:  55    -0.225312933170E+02    0.19906E-07   -0.46149E-08  3512   0.993E-04
   2 F= -.22531293E+02 E0= -.22520509E+02  d E =-.353109E-02  mag=    -0.0001
       N       E                     dE             d eps       ncg     rms          rms(c)
DAV:   1    -0.225314509784E+02   -0.15764E-03   -0.63929E-03  7448   0.114E+00    0.996E-02
DAV:   2    -0.225306424626E+02    0.80852E-03   -0.54718E-04  6564   0.212E-01    0.308E-02
DAV:   3    -0.225306505055E+02   -0.80429E-05   -0.78310E-05  6816   0.645E-02    0.153E-02
DAV:   4    -0.225308753460E+02   -0.22484E-03   -0.86323E-06  6172   0.220E-02    0.933E-03
DAV:   5    -0.225312303501E+02   -0.35500E-03   -0.87864E-06  5952   0.151E-02    0.152E-03
DAV:   6    -0.225312735726E+02   -0.43223E-04   -0.73501E-06  5268   0.951E-03    0.141E-03
DAV:   7    -0.225312804982E+02   -0.69256E-05   -0.62014E-06  4236   0.864E-03    0.106E-03
DAV:   8    -0.225313067129E+02   -0.26215E-04   -0.29752E-06  4772   0.583E-03    0.381E-04
DAV:   9    -0.225313160709E+02   -0.93581E-05   -0.29259E-06  4924   0.534E-03    0.176E-04
DAV:  10    -0.225313117401E+02    0.43309E-05   -0.24928E-06  4344   0.463E-03    0.980E-05
DAV:  11    -0.225313112550E+02    0.48504E-06   -0.85759E-07  4168   0.296E-03    0.771E-05
DAV:  12    -0.225313131240E+02   -0.18690E-05   -0.37475E-06  4872   0.498E-03    0.553E-05
DAV:  13    -0.225313122933E+02    0.83069E-06   -0.21153E-06  4544   0.439E-03    0.441E-05
DAV:  14    -0.225313130758E+02   -0.78246E-06   -0.74113E-07  4840   0.231E-03    0.310E-05
DAV:  15    -0.225313157417E+02   -0.26660E-05   -0.23242E-06  4988   0.385E-03    0.268E-05
DAV:  16    -0.225313175862E+02   -0.18445E-05   -0.74009E-07  4828   0.279E-03    0.184E-05
DAV:  17    -0.225313205755E+02   -0.29893E-05   -0.45681E-06  5444   0.357E-03    0.345E-05
DAV:  18    -0.225313206346E+02   -0.59037E-07   -0.26158E-07  4356   0.157E-03
   3 F= -.22531321E+02 E0= -.22520512E+02  d E =-.355841E-02  mag=    -0.0000
       N       E                     dE             d eps       ncg     rms          rms(c)
DAV:   1    -0.225313249460E+02   -0.43705E-05   -0.15576E-04  7132   0.175E-01    0.153E-02
DAV:   2    -0.225314288570E+02   -0.10391E-03   -0.20160E-05  6172   0.350E-02    0.488E-03
DAV:   3    -0.225314287779E+02    0.79078E-07   -0.11398E-05  6104   0.141E-02    0.235E-03
DAV:   4    -0.225314058152E+02    0.22963E-04   -0.13185E-05  4924   0.670E-03    0.163E-03
DAV:   5    -0.225313574482E+02    0.48367E-04   -0.50212E-03  4760   0.123E-02    0.987E-04
DAV:   6    -0.225313374113E+02    0.20037E-04   -0.21103E-05  5132   0.134E-02    0.433E-04
DAV:   7    -0.225313447872E+02   -0.73759E-05   -0.23456E-05  5796   0.107E-02    0.451E-04
DAV:   8    -0.225313530653E+02   -0.82781E-05   -0.25133E-05  4608   0.946E-03    0.251E-04
DAV:   9    -0.225322688847E+02   -0.91582E-03   -0.67506E-06  5096   0.435E-03    0.291E-02
DAV:  10    -0.225313767688E+02    0.89212E-03   -0.10323E-01  4576   0.172E-02    0.222E-04
DAV:  11    -0.225455542813E+02   -0.14178E-01   -0.31329E-02  5184   0.417E-03    0.208E-01
DAV:  12    -0.225313335674E+02    0.14221E-01   -0.25849E+00  5200   0.628E-02    0.380E-04
DAV:  13    -0.225313290371E+02    0.45303E-05   -0.41797E-06  5056   0.696E-03    0.156E-04
DAV:  14    -0.225313282518E+02    0.78532E-06   -0.33642E-06  4552   0.498E-03    0.113E-04
DAV:  15    -0.234687598303E+02   -0.93743E+00   -0.75665E-01  5648   0.662E-03    0.195E+00
DAV:  16    -0.225313397428E+02    0.93742E+00   -0.39108E+01  5748   0.193E+00    0.286E-03
DAV:  17    -0.225312559381E+02    0.83805E-04   -0.16156E-05  6392   0.474E-02    0.105E-03
DAV:  18    -0.225313011215E+02   -0.45183E-04   -0.23155E-06  5920   0.935E-03    0.620E-04
DAV:  19    -0.225313094160E+02   -0.82945E-05   -0.93897E-07  5516   0.472E-03    0.522E-04
DAV:  20    -0.225313121203E+02   -0.27043E-05   -0.10764E-06  5456   0.440E-03    0.405E-04
DAV:  21    -0.225313166993E+02   -0.45790E-05   -0.22172E-06  5344   0.525E-03    0.338E-04
DAV:  22    -0.225313202499E+02   -0.35506E-05   -0.59659E-06  4940   0.705E-03    0.330E-04
DAV:  23    -0.225313182027E+02    0.20472E-05   -0.80187E-06  4684   0.833E-03    0.326E-04
DAV:  24    -0.225313183192E+02   -0.11653E-06   -0.89488E-07  4808   0.389E-03    0.311E-04
DAV:  25    -0.225313264995E+02   -0.81803E-05   -0.97197E-07  4896   0.363E-03    0.297E-04
DAV:  26    -0.225313407920E+02   -0.14292E-04   -0.47461E-06  5176   0.509E-03    0.322E-04
DAV:  27    -0.225313468680E+02   -0.60759E-05   -0.21699E-06  5432   0.361E-03    0.304E-04
DAV:  28    -0.225313499920E+02   -0.31240E-05   -0.21905E-06  4548   0.388E-03    0.301E-04
DAV:  29    -0.225313590968E+02   -0.91048E-05   -0.55913E-06  4828   0.536E-03    0.303E-04
DAV:  30    -0.225313631586E+02   -0.40619E-05   -0.40040E-06  4980   0.387E-03    0.301E-04
DAV:  31    -0.225313591138E+02    0.40448E-05   -0.14670E-05  3944   0.407E-03    0.295E-04
DAV:  32    -0.225313589704E+02    0.14343E-06   -0.14243E-06  4112   0.246E-03    0.295E-04
DAV:  33    -0.225313612062E+02   -0.22358E-05   -0.12604E-06  3736   0.304E-03    0.297E-04
DAV:  34    -0.225315455417E+02   -0.18434E-03   -0.43276E-04  4272   0.322E-03    0.930E-03
DAV:  35    -0.225313764416E+02    0.16910E-03   -0.10162E-01  4628   0.165E-02    0.305E-04
DAV:  36    -0.225313810295E+02   -0.45879E-05   -0.18083E-06  4604   0.307E-03    0.303E-04
DAV:  37    -0.225313804047E+02    0.62484E-06   -0.30315E-07  4616   0.197E-03    0.320E-04
DAV:  38    -0.225313809782E+02   -0.57353E-06   -0.18167E-07  4256   0.140E-03    0.326E-04
DAV:  39    -0.225313810117E+02   -0.33423E-07   -0.31998E-07  3896   0.187E-03
   4 F= -.22531381E+02 E0= -.22520576E+02  d E =-.361879E-02  mag=     0.0001
       N       E                     dE             d eps       ncg     rms          rms(c)
DAV:   1    -0.225318496319E+02   -0.46865E-03   -0.27061E-02  7104   0.166E+00    0.126E-01
DAV:   2    -0.225308758322E+02    0.97380E-03   -0.22709E-03  7024   0.388E-01    0.510E-02
DAV:   3    -0.225309082755E+02   -0.32443E-04   -0.12669E-04  7504   0.871E-02    0.268E-02
DAV:   4    -0.225312613511E+02   -0.35308E-03   -0.24263E-05  7968   0.352E-02    0.135E-02
DAV:   5    -0.225315216309E+02   -0.26028E-03   -0.20251E-06  4996   0.101E-02    0.760E-03
DAV:   6    -0.225317213134E+02   -0.19968E-03   -0.11402E-06  5832   0.857E-03    0.273E-03
DAV:   7    -0.225318107019E+02   -0.89388E-04   -0.11167E-06  4640   0.497E-03    0.872E-04
DAV:   8    -0.225318203199E+02   -0.96179E-05   -0.66854E-07  4320   0.417E-03    0.494E-04
DAV:   9    -0.225318222243E+02   -0.19044E-05   -0.88742E-07  4432   0.332E-03    0.259E-04
DAV:  10    -0.225318258925E+02   -0.36682E-05   -0.11841E-06  4444   0.347E-03    0.155E-04
DAV:  11    -0.225318266646E+02   -0.77207E-06   -0.11690E-06  4772   0.318E-03    0.888E-05
DAV:  12    -0.225318267037E+02   -0.39161E-07   -0.11966E-06  4448   0.404E-03    0.672E-05
DAV:  13    -0.225318269402E+02   -0.23651E-06   -0.32289E-06  4856   0.465E-03    0.656E-05
DAV:  14    -0.225318258948E+02    0.10454E-05   -0.13453E-06  4632   0.352E-03    0.387E-05
DAV:  15    -0.225318258044E+02    0.90394E-07   -0.83590E-07  4592   0.297E-03
   5 F= -.22531826E+02 E0= -.22521017E+02  d E =-.444793E-03  mag=     0.0000
       N       E                     dE             d eps       ncg     rms          rms(c)
DAV:   1    -0.225324307463E+02   -0.60485E-03   -0.62821E-02  7188   0.253E+00    0.192E-01
DAV:   2    -0.225308517735E+02    0.15790E-02   -0.54447E-03  6880   0.601E-01    0.788E-02
DAV:   3    -0.225309171279E+02   -0.65354E-04   -0.28797E-04  8224   0.128E-01    0.411E-02
DAV:   4    -0.225315130879E+02   -0.59596E-03   -0.47400E-05  8156   0.494E-02    0.203E-02
DAV:   5    -0.227274150134E+02   -0.19590E+00   -0.70447E-01  6640   0.137E-02    0.752E-01
DAV:   6    -0.225318698273E+02    0.19555E+00   -0.10354E+01  5540   0.299E-01    0.119E-02
DAV:   7    -0.225321396877E+02   -0.26986E-03   -0.42651E-06  5396   0.155E-02    0.538E-03
DAV:   8    -0.225325489369E+02   -0.40925E-03   -0.10108E-05  6572   0.810E-03    0.102E-02
DAV:   9    -0.225322835334E+02    0.26540E-03   -0.13876E-01  5176   0.157E-02    0.201E-03
DAV:  10    -0.225323659799E+02   -0.82447E-04   -0.57436E-06  5088   0.599E-03    0.496E-04
DAV:  11    -0.225323663010E+02   -0.32111E-06   -0.19735E-06  5080   0.504E-03    0.241E-04
DAV:  12    -0.225323907897E+02   -0.24489E-04   -0.11454E-05  5440   0.756E-03    0.244E-04
DAV:  13    -0.225324076997E+02   -0.16910E-04   -0.37934E-05  5548   0.101E-02    0.236E-04
DAV:  14    -0.225324097525E+02   -0.20528E-05   -0.10412E-04  4684   0.143E-02    0.241E-04
DAV:  15    -0.225324042042E+02    0.55483E-05   -0.53367E-05  4608   0.119E-02    0.167E-04
DAV:  16    -0.225324002117E+02    0.39924E-05   -0.28917E-06  5032   0.346E-03    0.144E-04
DAV:  17    -0.225323989992E+02    0.12125E-05   -0.91319E-07  5348   0.178E-03    0.136E-04
DAV:  18    -0.225323975421E+02    0.14571E-05   -0.31159E-07  5044   0.126E-03    0.132E-04
DAV:  19    -0.225323934218E+02    0.41203E-05   -0.72240E-07  5168   0.170E-03    0.125E-04
DAV:  20    -0.225323918299E+02    0.15919E-05   -0.34405E-07  4300   0.164E-03    0.123E-04
DAV:  21    -0.225323909780E+02    0.85184E-06   -0.13144E-07  4428   0.113E-03    0.119E-04
DAV:  22    -0.225323901949E+02    0.78318E-06   -0.37323E-07  4044   0.152E-03    0.117E-04
DAV:  23    -0.225323888044E+02    0.13904E-05   -0.36491E-07  3872   0.146E-03    0.113E-04
DAV:  24    -0.225323875126E+02    0.12918E-05   -0.23886E-07  3572   0.118E-03    0.110E-04
DAV:  25    -0.225323878373E+02   -0.32463E-06   -0.97385E-07  3956   0.136E-03    0.108E-04
DAV:  26    -0.225323872734E+02    0.56386E-06   -0.23016E-06  3592   0.184E-03    0.109E-04
DAV:  27    -0.225323875722E+02   -0.29883E-06   -0.21040E-07  3528   0.906E-04    0.109E-04
DAV:  28    -0.225323878049E+02   -0.23266E-06   -0.27808E-07  3504   0.118E-03    0.109E-04
DAV:  29    -0.225323877997E+02    0.52250E-08   -0.18709E-07  3424   0.758E-04
   6 F= -.22532388E+02 E0= -.22521574E+02  d E =-.100679E-02  mag=     0.0001
       N       E                     dE             d eps       ncg     rms          rms(c)
DAV:   1    -0.225319973473E+02    0.39046E-03   -0.33996E-02  5736   0.338E+00    0.721E-02
DAV:   2    -0.225324490100E+02   -0.45166E-03   -0.60593E-03  5868   0.591E-01    0.355E-02
DAV:   3    -0.225324744936E+02   -0.25484E-04   -0.16840E-04  7196   0.108E-01    0.282E-02
DAV:   4    -0.225324628742E+02    0.11619E-04   -0.22270E-05  7416   0.381E-02    0.161E-02
DAV:   5    -0.225324374263E+02    0.25448E-04   -0.62943E-06  6660   0.148E-02    0.710E-03
DAV:   6    -0.225324025712E+02    0.34855E-04   -0.12205E-06  5756   0.947E-03    0.328E-03
DAV:   7    -0.225323698270E+02    0.32744E-04   -0.24828E-06  5348   0.636E-03    0.213E-03
DAV:   8    -0.225323592876E+02    0.10539E-04   -0.15036E-06  4736   0.583E-03    0.127E-03
DAV:   9    -0.225323539604E+02    0.53272E-05   -0.10755E-06  4708   0.371E-03    0.482E-04
DAV:  10    -0.225323499824E+02    0.39780E-05   -0.80654E-07  4560   0.324E-03    0.177E-04
DAV:  11    -0.225323473582E+02    0.26242E-05   -0.14281E-06  4868   0.266E-03    0.272E-04
DAV:  12    -0.225323468649E+02    0.49324E-06   -0.20460E-06  4408   0.322E-03    0.221E-04
DAV:  13    -0.225323465115E+02    0.35344E-06   -0.61689E-07  4308   0.211E-03    0.142E-04
DAV:  14    -0.225323459588E+02    0.55270E-06   -0.87000E-07  4340   0.192E-03    0.836E-05
DAV:  15    -0.225323467573E+02   -0.79846E-06   -0.59537E-06  4912   0.372E-03    0.718E-05
DAV:  16    -0.225323461778E+02    0.57942E-06   -0.53143E-06  4328   0.403E-03    0.334E-05
DAV:  17    -0.225323464111E+02   -0.23326E-06   -0.18995E-06  4652   0.273E-03    0.260E-05
DAV:  18    -0.225323475643E+02   -0.11532E-05   -0.43891E-06  5100   0.241E-03    0.299E-05
DAV:  19    -0.225323482953E+02   -0.73098E-06   -0.12185E-05  4600   0.514E-03    0.365E-05
DAV:  20    -0.225323481399E+02    0.15539E-06   -0.86163E-07  5108   0.207E-03    0.195E-05
DAV:  21    -0.225323595871E+02   -0.11447E-04   -0.41377E-06  5132   0.287E-03    0.630E-04
DAV:  22    -0.225323517554E+02    0.78317E-05   -0.64375E-04  4132   0.586E-03    0.227E-05
DAV:  23    -0.225323472133E+02    0.45421E-05   -0.89790E-06  4552   0.362E-03    0.458E-05
DAV:  24    -0.225323420090E+02    0.52043E-05   -0.39415E-05  4328   0.446E-03    0.184E-05
DAV:  25    -0.225323425765E+02   -0.56751E-06   -0.88390E-07  4844   0.219E-03    0.162E-05
DAV:  26    -0.225331226257E+02   -0.78005E-03   -0.14812E-03  4552   0.146E-03    0.264E-02
DAV:  27    -0.225323406389E+02    0.78199E-03   -0.28369E-01  4664   0.157E-02    0.131E-04
DAV:  28    -0.225323268744E+02    0.13765E-04   -0.18808E-05  4864   0.757E-03    0.132E-04
DAV:  29    -0.225323277887E+02   -0.91427E-06   -0.88887E-05  4652   0.535E-03    0.947E-05
DAV:  30    -0.232011746754E+02   -0.66885E+00   -0.20004E+00  5012   0.468E-03    0.171E+00
DAV:  31    -0.225322588909E+02    0.66892E+00   -0.33709E+01  5516   0.175E+00    0.364E-03
DAV:  32    -0.225322331898E+02    0.25701E-04   -0.22542E-05  6500   0.502E-02    0.247E-03
DAV:  33    -0.225322863891E+02   -0.53199E-04   -0.29261E-06  5536   0.125E-02    0.937E-04
DAV:  34    -0.225322911748E+02   -0.47857E-05   -0.11025E-06  4880   0.595E-03    0.807E-04
DAV:  35    -0.225322839141E+02    0.72607E-05   -0.77921E-07  5204   0.377E-03    0.809E-04
DAV:  36    -0.225322693188E+02    0.14595E-04   -0.10365E-06  5380   0.352E-03    0.794E-04
DAV:  37    -0.225322662741E+02    0.30447E-05   -0.60776E-07  5156   0.334E-03    0.843E-04
DAV:  38    -0.225322651046E+02    0.11695E-05   -0.32389E-07  5056   0.241E-03    0.718E-04
DAV:  39    -0.225322649690E+02    0.13561E-06   -0.35120E-07  4980   0.284E-03    0.656E-04
DAV:  40    -0.225322623322E+02    0.26368E-05   -0.79542E-07  4688   0.363E-03    0.642E-04
DAV:  41    -0.225322670491E+02   -0.47170E-05   -0.91187E-06  4328   0.891E-03    0.637E-04
DAV:  42    -0.225322631573E+02    0.38918E-05   -0.11493E-05  4176   0.109E-02    0.635E-04
DAV:  43    -0.225322619163E+02    0.12410E-05   -0.82623E-07  4340   0.416E-03    0.639E-04
DAV:  44    -0.225322642314E+02   -0.23152E-05   -0.13972E-06  4312   0.478E-03    0.646E-04
DAV:  45    -0.225322622343E+02    0.19972E-05   -0.14802E-06  4212   0.507E-03    0.644E-04
DAV:  46    -0.225322621022E+02    0.13203E-06   -0.34745E-07  4200   0.261E-03    0.641E-04
DAV:  47    -0.225322623995E+02   -0.29729E-06   -0.11306E-06  4768   0.302E-03    0.636E-04
DAV:  48    -0.225322614201E+02    0.97938E-06   -0.86621E-07  4492   0.243E-03    0.633E-04
DAV:  49    -0.225322615328E+02   -0.11267E-06   -0.90004E-08  3804   0.133E-03    0.633E-04
DAV:  50    -0.225322589194E+02    0.26134E-05   -0.18019E-06  4260   0.565E-03    0.617E-04
DAV:  51    -0.225322584863E+02    0.43308E-06   -0.26147E-06  4348   0.479E-03    0.610E-04
DAV:  52    -0.225322581105E+02    0.37578E-06   -0.36527E-07  4404   0.215E-03    0.611E-04
DAV:  53    -0.225322585856E+02   -0.47504E-06   -0.51062E-07  4020   0.267E-03    0.612E-04
DAV:  54    -0.225322590287E+02   -0.44308E-06   -0.84170E-07  3896   0.299E-03    0.609E-04
DAV:  55    -0.225322580541E+02    0.97456E-06   -0.19640E-06  4224   0.500E-03    0.607E-04
DAV:  56    -0.225322570745E+02    0.97962E-06   -0.46246E-07  4340   0.319E-03    0.604E-04
DAV:  57    -0.225322571841E+02   -0.10966E-06   -0.46460E-07  4100   0.323E-03    0.599E-04
DAV:  58    -0.225322572453E+02   -0.61179E-07   -0.60151E-07  4216   0.401E-03
   7 F= -.22532257E+02 E0= -.22521341E+02  d E =0.130554E-03  mag=    -0.0003
       N       E                     dE             d eps       ncg     rms          rms(c)
DAV:   1    -0.225313460469E+02    0.91114E-03   -0.54405E-02  5680   0.443E+00    0.963E-02
DAV:   2    -0.225322561833E+02   -0.91014E-03   -0.10727E-02  5884   0.786E-01    0.472E-02
DAV:   3    -0.225322925052E+02   -0.36322E-04   -0.28511E-04  7176   0.142E-01    0.372E-02
DAV:   4    -0.225322930133E+02   -0.50814E-06   -0.44432E-05  6696   0.548E-02    0.192E-02
DAV:   5    -0.225322585962E+02    0.34417E-04   -0.10459E-05  5856   0.198E-02    0.869E-03
DAV:   6    -0.225322232421E+02    0.35354E-04   -0.58867E-06  6320   0.225E-02    0.374E-03
DAV:   7    -0.225321793311E+02    0.43911E-04   -0.23234E-06  4980   0.114E-02    0.218E-03
DAV:   8    -0.225321635532E+02    0.15778E-04   -0.14312E-06  4876   0.612E-03    0.871E-04
DAV:   9    -0.225321640977E+02   -0.54455E-06   -0.93623E-07  4268   0.441E-03    0.505E-04
DAV:  10    -0.225321604675E+02    0.36302E-05   -0.80496E-07  4352   0.409E-03    0.365E-04
DAV:  11    -0.225321614977E+02   -0.10302E-05   -0.77354E-07  4592   0.324E-03    0.144E-04
DAV:  12    -0.225321636142E+02   -0.21165E-05   -0.26105E-06  4532   0.483E-03    0.137E-04
DAV:  13    -0.225321604542E+02    0.31600E-05   -0.22436E-06  4380   0.423E-03    0.111E-04
DAV:  14    -0.225321593786E+02    0.10756E-05   -0.40441E-07  4308   0.286E-03    0.950E-05
DAV:  15    -0.225321595566E+02   -0.17800E-06   -0.10972E-06  4464   0.333E-03    0.700E-05
DAV:  16    -0.225321609408E+02   -0.13842E-05   -0.30520E-06  4752   0.499E-03    0.750E-05
DAV:  17    -0.225321594523E+02    0.14885E-05   -0.18883E-06  4572   0.465E-03    0.815E-05
DAV:  18    -0.225321598273E+02   -0.37501E-06   -0.15993E-06  4708   0.388E-03    0.666E-05
DAV:  19    -0.225321608068E+02   -0.97957E-06   -0.56800E-06  5104   0.607E-03    0.576E-05
DAV:  20    -0.225321614482E+02   -0.64139E-06   -0.33208E-06  4932   0.477E-03    0.253E-05
DAV:  21    -0.228470187348E+02   -0.31486E+00   -0.70937E-01  5668   0.599E-03    0.108E+00
DAV:  22    -0.225321913633E+02    0.31483E+00   -0.16946E+01  5500   0.477E-01    0.161E-03
DAV:  23    -0.225321796561E+02    0.11707E-04   -0.55746E-06  5796   0.213E-02    0.625E-04
DAV:  24    -0.225321628720E+02    0.16784E-04   -0.22298E-06  4996   0.552E-03    0.295E-04
DAV:  25    -0.225321663542E+02   -0.34822E-05   -0.23475E-06  5132   0.410E-03    0.226E-04
DAV:  26    -0.225321782772E+02   -0.11923E-04   -0.13741E-05  5648   0.540E-03    0.164E-04
DAV:  27    -0.281221320782E+02   -0.55900E+01   -0.16288E+01  5532   0.847E-03    0.822E+00
DAV:  28    -0.225317980175E+02    0.55903E+01   -0.23017E+02  5876   0.113E+01    0.271E-02
DAV:  29    -0.225315679218E+02    0.23010E-03   -0.40714E-04  6448   0.317E-01    0.789E-03
DAV:  30    -0.225319625780E+02   -0.39466E-03   -0.33533E-05  6892   0.473E-02    0.377E-03
DAV:  31    -0.225320461813E+02   -0.83603E-04   -0.50754E-06  6176   0.176E-02    0.279E-03
DAV:  32    -0.225320735544E+02   -0.27373E-04   -0.10975E-06  5488   0.654E-03    0.255E-03
DAV:  33    -0.225320749656E+02   -0.14112E-05   -0.29463E-07  5360   0.361E-03    0.208E-03
DAV:  34    -0.225320737277E+02    0.12380E-05   -0.14696E-07  4864   0.246E-03    0.190E-03
DAV:  35    -0.225320736346E+02    0.93019E-07   -0.17543E-07  4804   0.197E-03
   8 F= -.22532074E+02 E0= -.22521023E+02  d E =0.314165E-03  mag=     0.0008
       N       E                     dE             d eps       ncg     rms          rms(c)
DAV:   1    -0.225320661650E+02    0.75626E-05   -0.37704E-04  6280   0.368E-01    0.809E-03
DAV:   2    -0.225321520373E+02   -0.85872E-04   -0.75477E-05  6456   0.656E-02    0.397E-03
DAV:   3    -0.225321569902E+02   -0.49529E-05   -0.24839E-06  6868   0.132E-02    0.312E-03
DAV:   4    -0.225321770211E+02   -0.20031E-04   -0.58156E-07  4980   0.593E-03    0.178E-03
DAV:   5    -0.225321866857E+02   -0.96646E-05   -0.10794E-06  4304   0.524E-03    0.826E-04
DAV:   6    -0.225321957720E+02   -0.90863E-05   -0.95631E-07  4676   0.518E-03    0.548E-04
DAV:   7    -0.225321981027E+02   -0.23307E-05   -0.38917E-07  4360   0.340E-03    0.535E-04
DAV:   8    -0.225321976510E+02    0.45174E-06   -0.30891E-07  4372   0.263E-03    0.392E-04
DAV:   9    -0.225321874842E+02    0.10167E-04   -0.79087E-07  4652   0.371E-03    0.244E-04
DAV:  10    -0.225321880156E+02   -0.53144E-06   -0.47277E-07  4520   0.282E-03    0.238E-04
DAV:  11    -0.225321847736E+02    0.32420E-05   -0.56218E-06  4764   0.634E-03    0.188E-04
DAV:  12    -0.225321789715E+02    0.58021E-05   -0.29253E-06  4704   0.579E-03    0.854E-05
DAV:  13    -0.225321726963E+02    0.62752E-05   -0.20657E-06  4888   0.409E-03    0.724E-05
DAV:  14    -0.225321689099E+02    0.37864E-05   -0.74648E-06  5684   0.426E-03    0.101E-04
DAV:  15    -0.225321694826E+02   -0.57269E-06   -0.15435E-06  4400   0.237E-03    0.734E-05
DAV:  16    -0.225322786320E+02   -0.10915E-03   -0.41812E-04  4432   0.154E-03    0.551E-03
DAV:  17    -0.225321625183E+02    0.11611E-03   -0.56166E-02  4636   0.114E-02    0.469E-05
DAV:  18    -0.225321608460E+02    0.16723E-05   -0.23697E-06  4668   0.519E-03    0.449E-05
DAV:  19    -0.225327506242E+02   -0.58978E-03   -0.12168E-03  4720   0.411E-03    0.231E-02
DAV:  20    -0.225321628298E+02    0.58779E-03   -0.27999E-01  4452   0.245E-02    0.913E-05
DAV:  21    -0.230892333187E+02   -0.55707E+00   -0.13848E+00  5404   0.765E-03    0.137E+00
DAV:  22    -0.225321052002E+02    0.55713E+00   -0.24748E+01  5468   0.732E-01    0.207E-03
DAV:  23    -0.225321346954E+02   -0.29495E-04   -0.22057E-05  6052   0.291E-02    0.843E-04
DAV:  24    -0.225322268839E+02   -0.92189E-04   -0.11446E-05  5360   0.865E-03    0.705E-04
DAV:  25    -0.225322330372E+02   -0.61532E-05   -0.42227E-06  4944   0.394E-03    0.615E-04
DAV:  26    -0.225322352606E+02   -0.22235E-05   -0.38694E-07  5012   0.186E-03    0.554E-04
DAV:  27    -0.225322298617E+02    0.53989E-05   -0.76420E-07  4916   0.176E-03    0.514E-04
DAV:  28    -0.225322258969E+02    0.39648E-05   -0.17873E-06  4668   0.279E-03    0.501E-04
DAV:  29    -0.225322234936E+02    0.24033E-05   -0.17173E-06  4364   0.243E-03    0.486E-04
DAV:  30    -0.225322182219E+02    0.52718E-05   -0.19974E-06  4192   0.305E-03    0.483E-04
DAV:  31    -0.225322167550E+02    0.14669E-05   -0.50420E-07  4304   0.189E-03    0.478E-04
DAV:  32    -0.225322166780E+02    0.76958E-07   -0.20612E-07  3960   0.146E-03
   9 F= -.22532217E+02 E0= -.22521177E+02  d E =0.171122E-03  mag=     0.0003
       N       E                     dE             d eps       ncg     rms          rms(c)
DAV:   1    -0.225321943710E+02    0.22384E-04   -0.12055E-03  5896   0.647E-01    0.139E-02
DAV:   2    -0.225322181820E+02   -0.23811E-04   -0.23748E-04  6348   0.116E-01    0.685E-03
DAV:   3    -0.225322134197E+02    0.47623E-05   -0.84798E-06  7592   0.226E-02    0.542E-03
DAV:   4    -0.225322106200E+02    0.27997E-05   -0.12620E-06  5652   0.869E-03    0.297E-03
DAV:   5    -0.225322144514E+02   -0.38314E-05   -0.44503E-07  4748   0.470E-03    0.125E-03
DAV:   6    -0.225322215992E+02   -0.71478E-05   -0.21364E-06  3976   0.550E-03    0.616E-04
DAV:   7    -0.225322211572E+02    0.44199E-06   -0.26957E-06  3932   0.541E-03    0.478E-04
DAV:   8    -0.225322214548E+02   -0.29767E-06   -0.20430E-06  4424   0.493E-03    0.362E-04
DAV:   9    -0.225322219320E+02   -0.47717E-06   -0.10360E-06  4436   0.399E-03    0.171E-04
DAV:  10    -0.225322196289E+02    0.23031E-05   -0.40912E-07  4396   0.262E-03    0.130E-04
DAV:  11    -0.225322199108E+02   -0.28191E-06   -0.55579E-07  4360   0.265E-03    0.112E-04
DAV:  12    -0.225322165996E+02    0.33112E-05   -0.41271E-07  4576   0.272E-03    0.105E-04
DAV:  13    -0.225322161096E+02    0.49003E-06   -0.26611E-06  4580   0.472E-03    0.743E-05
DAV:  14    -0.225322150260E+02    0.10836E-05   -0.23203E-06  4488   0.537E-03    0.476E-05
DAV:  15    -0.225322151015E+02   -0.75502E-07   -0.78234E-06  5084   0.647E-03    0.428E-05
DAV:  16    -0.225322137305E+02    0.13711E-05   -0.51722E-06  4820   0.623E-03    0.304E-05
DAV:  17    -0.225322143714E+02   -0.64095E-06   -0.25098E-06  5156   0.467E-03    0.333E-05
DAV:  18    -0.225322156525E+02   -0.12811E-05   -0.74083E-07  5608   0.236E-03    0.206E-05
DAV:  19    -0.225322153187E+02    0.33375E-06   -0.31461E-07  4440   0.131E-03    0.185E-05
DAV:  20    -0.225322152531E+02    0.65577E-07   -0.19148E-07  4324   0.131E-03
  10 F= -.22532215E+02 E0= -.22521195E+02  d E =0.172547E-03  mag=     0.0000
       N       E                     dE             d eps       ncg     rms          rms(c)
DAV:   1    -0.225333073118E+02   -0.10920E-02   -0.22479E-03  6576   0.449E-01    0.357E-02
DAV:   2    -0.225323775311E+02    0.92978E-03   -0.41149E-01  7600   0.204E-01    0.378E-02
DAV:   3    -0.225323146316E+02    0.62900E-04   -0.86270E-05  7236   0.104E-01    0.111E-02
DAV:   4    -0.225323098356E+02    0.47960E-05   -0.29205E-05  7844   0.411E-02    0.562E-03
DAV:   5    -0.225323191900E+02   -0.93544E-05   -0.46588E-06  6264   0.133E-02    0.460E-03
DAV:   6    -0.225322638908E+02    0.55299E-04   -0.30266E-06  5720   0.100E-02    0.346E-03
DAV:   7    -0.225322854816E+02   -0.21591E-04   -0.85406E-06  5736   0.905E-03    0.269E-03
DAV:   8    -0.225322500627E+02    0.35419E-04   -0.10123E-05  5196   0.773E-03    0.233E-03
DAV:   9    -0.225322669912E+02   -0.16928E-04   -0.37904E-06  5720   0.533E-03    0.188E-03
DAV:  10    -0.225322704751E+02   -0.34839E-05   -0.33532E-07  5596   0.279E-03    0.163E-03
DAV:  11    -0.225322727295E+02   -0.22544E-05   -0.13412E-07  4444   0.162E-03    0.152E-03
DAV:  12    -0.233152825846E+02   -0.78301E+00   -0.14808E+00  5352   0.265E-03    0.169E+00
DAV:  13    -0.225323556941E+02    0.78293E+00   -0.29680E+01  6308   0.896E-01    0.296E-03
DAV:  14    -0.225322748395E+02    0.80855E-04   -0.10605E-05  6056   0.436E-02    0.145E-03
DAV:  15    -0.225322887610E+02   -0.13921E-04   -0.87106E-07  5488   0.640E-03    0.122E-03
DAV:  16    -0.225322935190E+02   -0.47580E-05   -0.50951E-07  4908   0.364E-03    0.118E-03
DAV:  17    -0.225322998958E+02   -0.63768E-05   -0.36360E-06  5104   0.630E-03    0.108E-03
DAV:  18    -0.225322983204E+02    0.15753E-05   -0.37895E-06  4584   0.668E-03    0.108E-03
DAV:  19    -0.225323062256E+02   -0.79051E-05   -0.80563E-07  5236   0.369E-03    0.895E-04
DAV:  20    -0.225323198348E+02   -0.13609E-04   -0.27564E-06  5300   0.577E-03    0.702E-04
DAV:  21    -0.225323258785E+02   -0.60437E-05   -0.26901E-06  5520   0.456E-03    0.615E-04
DAV:  22    -0.225323363420E+02   -0.10463E-04   -0.19900E-05  5368   0.744E-03    0.611E-04
DAV:  23    -0.225323561423E+02   -0.19800E-04   -0.49229E-05  5100   0.123E-02    0.466E-04
DAV:  24    -0.225323211862E+02    0.34956E-04   -0.28265E-03  4312   0.174E-02    0.573E-04
DAV:  25    -0.225323221642E+02   -0.97799E-06   -0.80930E-06  4620   0.490E-03    0.547E-04
DAV:  26    -0.225323120921E+02    0.10072E-04   -0.43278E-06  4876   0.491E-03    0.482E-04
DAV:  27    -0.225323078050E+02    0.42871E-05   -0.37663E-07  5256   0.260E-03    0.427E-04
DAV:  28    -0.225322914734E+02    0.16332E-04   -0.12564E-06  5152   0.332E-03    0.306E-04
DAV:  29    -0.225322851747E+02    0.62987E-05   -0.14297E-06  5092   0.392E-03    0.269E-04
DAV:  30    -0.225322757994E+02    0.93753E-05   -0.21550E-06  4992   0.439E-03    0.240E-04
DAV:  31    -0.225322733050E+02    0.24944E-05   -0.42135E-07  4744   0.268E-03    0.238E-04
DAV:  32    -0.225322701754E+02    0.31296E-05   -0.98140E-07  4924   0.322E-03    0.232E-04
DAV:  33    -0.225322674323E+02    0.27431E-05   -0.45434E-07  4832   0.280E-03    0.228E-04
DAV:  34    -0.225322643282E+02    0.31041E-05   -0.52468E-07  4516   0.270E-03    0.225E-04
DAV:  35    -0.225322614745E+02    0.28536E-05   -0.50801E-07  4876   0.256E-03    0.220E-04
DAV:  36    -0.359783208194E+02   -0.13446E+02   -0.94377E+01  5820   0.397E-03    0.112E+01
DAV:  37    -0.181830723445E+02    0.17795E+02   -0.29564E+02  5992   0.153E+01    0.455E+00
DAV:  38    -0.221894304296E+02   -0.40064E+01   -0.36121E+01  7616   0.608E+00    0.126E+00
DAV:  39    -0.225300118894E+02   -0.34058E+00   -0.33072E+00  7412   0.272E+00    0.470E-01
DAV:  40    -0.225321811246E+02   -0.21692E-02   -0.90135E-02  8008   0.703E-01    0.296E-01
DAV:  41    -0.225329047871E+02   -0.72366E-03   -0.47438E-03  7072   0.271E-01    0.245E-01
DAV:  42    -0.225319924489E+02    0.91234E-03   -0.15946E-03  7404   0.264E-01    0.185E-01
DAV:  43    -0.225317221069E+02    0.27034E-03   -0.38333E-04  7588   0.112E-01    0.169E-01
DAV:  44    -0.225317584251E+02   -0.36318E-04   -0.31188E-05  6692   0.371E-02    0.158E-01
DAV:  45    -0.225319635924E+02   -0.20517E-03   -0.45183E-05  7432   0.474E-02    0.136E-01
DAV:  46    -0.225320455479E+02   -0.81955E-04   -0.96499E-06  7860   0.194E-02    0.127E-01
DAV:  47    -0.225321245111E+02   -0.78963E-04   -0.66144E-06  6748   0.170E-02    0.120E-01
DAV:  48    -0.225320835344E+02    0.40977E-04   -0.14924E-05  6560   0.198E-02    0.110E-01
DAV:  49    -0.225320808262E+02    0.27082E-05   -0.12425E-05  6960   0.175E-02    0.994E-02
DAV:  50    -0.225320786025E+02    0.22237E-05   -0.41086E-06  5728   0.968E-03    0.934E-02
DAV:  51    -0.225321007773E+02   -0.22175E-04   -0.51481E-06  4796   0.995E-03    0.841E-02
DAV:  52    -0.225321117814E+02   -0.11004E-04   -0.31400E-06  4400   0.105E-02    0.792E-02
DAV:  53    -0.225321156886E+02   -0.39073E-05   -0.49732E-06  4640   0.115E-02    0.722E-02
DAV:  54    -0.225321261489E+02   -0.10460E-04   -0.19410E-06  4820   0.804E-03    0.676E-02
DAV:  55    -0.225321012156E+02    0.24933E-04   -0.89267E-07  6548   0.766E-03    0.663E-02
DAV:  56    -0.225320926513E+02    0.85644E-05   -0.81913E-07  4916   0.576E-03    0.639E-02
DAV:  57    -0.225320520418E+02    0.40609E-04   -0.78267E-06  5892   0.166E-02    0.736E-02
DAV:  58    -0.225320317465E+02    0.20295E-04   -0.18407E-06  5916   0.880E-03    0.695E-02
DAV:  59    -0.225320191569E+02    0.12590E-04   -0.26478E-06  4884   0.992E-03    0.603E-02
DAV:  60    -0.225320273638E+02   -0.82070E-05   -0.34532E-06  4256   0.102E-02    0.552E-02
DAV:  61    -0.225320412881E+02   -0.13924E-04   -0.38602E-06  4352   0.991E-03    0.508E-02
DAV:  62    -0.225320369543E+02    0.43338E-05   -0.17773E-06  6528   0.865E-03    0.441E-02
DAV:  63    -0.225320370246E+02   -0.70318E-07   -0.64092E-07  5560   0.579E-03
  11 F= -.22532037E+02 E0= -.22520998E+02  d E =0.350775E-03  mag=    -0.0011
       N       E                     dE             d eps       ncg     rms          rms(c)
DAV:   1    -0.225320240352E+02    0.12919E-04   -0.41540E-05  6024   0.124E-01    0.394E-02
DAV:   2    -0.225319856619E+02    0.38373E-04   -0.63172E-05  7880   0.819E-02    0.210E-02
DAV:   3    -0.225320174473E+02   -0.31785E-04   -0.85606E-06  6196   0.197E-02    0.109E-02
DAV:   4    -0.225320339751E+02   -0.16528E-04   -0.27760E-06  4392   0.109E-02    0.618E-03
DAV:   5    -0.225320368752E+02   -0.29002E-05   -0.43658E-06  4448   0.114E-02    0.240E-03
DAV:   6    -0.225320559115E+02   -0.19036E-04   -0.28274E-06  5484   0.907E-03    0.177E-03
DAV:   7    -0.225320958722E+02   -0.39961E-04   -0.59630E-06  4492   0.106E-02    0.153E-03
DAV:   8    -0.225321038805E+02   -0.80084E-05   -0.19818E-06  4516   0.818E-03    0.120E-03
DAV:   9    -0.225321185042E+02   -0.14624E-04   -0.16821E-05  4444   0.141E-02    0.673E-04
DAV:  10    -0.225321394259E+02   -0.20922E-04   -0.25913E-05  4616   0.184E-02    0.303E-04
DAV:  11    -0.225321402688E+02   -0.84291E-06   -0.38534E-06  4860   0.867E-03    0.237E-04
DAV:  12    -0.225321432695E+02   -0.30007E-05   -0.23982E-06  4888   0.479E-03    0.212E-04
DAV:  13    -0.225385006952E+02   -0.63574E-02   -0.13428E-03  5004   0.598E-03    0.132E-01
DAV:  14    -0.225321489882E+02    0.63517E-02   -0.17769E+00  4268   0.716E-02    0.246E-04
DAV:  15    -0.225321569381E+02   -0.79499E-05   -0.25115E-06  4772   0.543E-03    0.148E-04
DAV:  16    -0.225321628400E+02   -0.59018E-05   -0.84176E-06  5824   0.392E-03    0.809E-04
DAV:  17    -0.225321631171E+02   -0.27710E-06   -0.94113E-03  4636   0.689E-03    0.104E-04
DAV:  18    -0.225321678415E+02   -0.47245E-05   -0.57732E-07  4764   0.191E-03    0.801E-05
DAV:  19    -0.225321862713E+02   -0.18430E-04   -0.44731E-07  4944   0.175E-03    0.756E-05
DAV:  20    -0.225322871550E+02   -0.10088E-03   -0.13422E-06  5212   0.251E-03    0.393E-03
DAV:  21    -0.225326049943E+02   -0.31784E-03   -0.13648E-02  4948   0.640E-03    0.149E-02
DAV:  22    -0.225322209883E+02    0.38401E-03   -0.98425E-02  4336   0.194E-02    0.738E-05
DAV:  23    -0.225322390085E+02   -0.18020E-04   -0.11911E-06  4532   0.225E-03    0.686E-05
DAV:  24    -0.225322425200E+02   -0.35115E-05   -0.20005E-06  4432   0.124E-03    0.558E-05
DAV:  25    -0.225322451593E+02   -0.26393E-05   -0.11672E-07  4416   0.691E-04    0.536E-05
DAV:  26    -0.225322482319E+02   -0.30725E-05   -0.13310E-07  4256   0.696E-04    0.530E-05
DAV:  27    -0.225322488585E+02   -0.62662E-06   -0.39602E-08  4148   0.561E-04    0.512E-05
DAV:  28    -0.225322489476E+02   -0.89115E-07   -0.87338E-09  4172   0.425E-04
  12 F= -.22532249E+02 E0= -.22521211E+02  d E =0.138852E-03  mag=    -0.0000
       N       E                     dE             d eps       ncg     rms          rms(c)
DAV:   1    -0.225322482047E+02    0.65382E-06   -0.11327E-05  6240   0.617E-02    0.129E-03
DAV:   2    -0.225322314829E+02    0.16722E-04   -0.20865E-06  6508   0.108E-02    0.647E-04
DAV:   3    -0.225322263717E+02    0.51113E-05   -0.74904E-08  4788   0.212E-03    0.489E-04
DAV:   4    -0.225322234652E+02    0.29064E-05   -0.35750E-08  4180   0.163E-03    0.301E-04
DAV:   5    -0.225322196306E+02    0.38346E-05   -0.70540E-08  4720   0.127E-03    0.173E-04
DAV:   6    -0.225322150383E+02    0.45923E-05   -0.10566E-07  4872   0.149E-03    0.726E-05
DAV:   7    -0.225322142371E+02    0.80122E-06   -0.54858E-08  4596   0.114E-03    0.609E-05
DAV:   8    -0.225322103117E+02    0.39254E-05   -0.34154E-07  4952   0.133E-03    0.493E-05
DAV:   9    -0.225322313707E+02   -0.21059E-04   -0.64232E-05  5096   0.134E-03    0.141E-03
DAV:  10    -0.225368545638E+02   -0.46232E-02   -0.17301E-02  4084   0.334E-03    0.101E-01
DAV:  11    -0.225321830874E+02    0.46715E-02   -0.14495E+00  4736   0.707E-02    0.192E-04
DAV:  12    -0.225321900846E+02   -0.69972E-05   -0.37506E-06  5036   0.586E-03    0.779E-05
DAV:  13    -0.225321981360E+02   -0.80514E-05   -0.19846E-06  4948   0.354E-03    0.472E-05
DAV:  14    -0.225321996427E+02   -0.15067E-05   -0.74350E-07  4664   0.223E-03    0.349E-05
DAV:  15    -0.225321990464E+02    0.59630E-06   -0.44938E-07  3932   0.182E-03    0.303E-05
DAV:  16    -0.225718813074E+02   -0.39682E-01   -0.24916E-02  4244   0.157E-03    0.396E-01
DAV:  17    -0.225321459267E+02    0.39735E-01   -0.53503E+00  4764   0.302E-01    0.670E-04
DAV:  18    -0.225321738085E+02   -0.27882E-04   -0.29077E-06  5344   0.111E-02    0.227E-04
DAV:  19    -0.225322035147E+02   -0.29706E-04   -0.21666E-05  5404   0.753E-03    0.182E-04
DAV:  20    -0.225321977579E+02    0.57569E-05   -0.41972E-05  4896   0.905E-03    0.148E-04
DAV:  21    -0.225321972274E+02    0.53049E-06   -0.66618E-06  4792   0.408E-03    0.142E-04
DAV:  22    -0.225321960602E+02    0.11672E-05   -0.46290E-07  4628   0.224E-03    0.128E-04
DAV:  23    -0.225321959370E+02    0.12319E-06   -0.82623E-07  4392   0.188E-03    0.116E-04
DAV:  24    -0.225321948416E+02    0.10954E-05   -0.20519E-07  4420   0.128E-03    0.968E-05
DAV:  25    -0.225321940027E+02    0.83888E-06   -0.18363E-07  4464   0.142E-03    0.926E-05
DAV:  26    -0.225321943699E+02   -0.36713E-06   -0.15093E-07  4492   0.129E-03    0.858E-05
DAV:  27    -0.225321944608E+02   -0.90969E-07   -0.14583E-07  4604   0.155E-03
  13 F= -.22532194E+02 E0= -.22521159E+02  d E =0.193339E-03  mag=     0.0000
       N       E                     dE             d eps       ncg     rms          rms(c)
DAV:   1    -0.225321959602E+02   -0.15904E-05   -0.17902E-03  6056   0.524E-01    0.200E-02
DAV:   2    -0.225321358495E+02    0.60111E-04   -0.22342E-04  6092   0.113E-01    0.929E-03
DAV:   3    -0.225321257794E+02    0.10070E-04   -0.71256E-06  6804   0.219E-02    0.711E-03
DAV:   4    -0.225321602354E+02   -0.34456E-04   -0.60917E-06  6412   0.138E-02    0.189E-03
DAV:   5    -0.225321872915E+02   -0.27056E-04   -0.86600E-06  5264   0.748E-03    0.136E-03
DAV:   6    -0.225321991810E+02   -0.11890E-04   -0.37630E-06  4224   0.557E-03    0.114E-03
DAV:   7    -0.225322148948E+02   -0.15714E-04   -0.46833E-05  4236   0.750E-03    0.716E-04
DAV:   8    -0.225396235626E+02   -0.74087E-02   -0.35674E-03  4676   0.680E-03    0.139E-01
DAV:   9    -0.225322143086E+02    0.74093E-02   -0.17160E+00  4636   0.107E-01    0.341E-04
DAV:  10    -0.225353767380E+02   -0.31624E-02   -0.49985E-06  5108   0.724E-03    0.743E-02
DAV:  11    -0.225322196102E+02    0.31571E-02   -0.79242E-01  4780   0.399E-02    0.317E-04
DAV:  12    -0.225366564478E+02   -0.44368E-02   -0.49727E-06  4840   0.586E-03    0.109E-01
DAV:  13    -0.225322107049E+02    0.44457E-02   -0.12247E+00  4396   0.362E-02    0.201E-04
DAV:  14    -0.225322035278E+02    0.71771E-05   -0.49959E-06  5356   0.594E-03    0.111E-04
DAV:  15    -0.225322030049E+02    0.52290E-06   -0.52246E-06  4716   0.593E-03    0.256E-04
DAV:  16    -0.225321972600E+02    0.57450E-05   -0.34897E-04  4136   0.620E-03    0.935E-05
DAV:  17    -0.228818596962E+02   -0.34966E+00   -0.71172E-01  4980   0.716E-03    0.151E+00
DAV:  18    -0.225319583583E+02    0.34990E+00   -0.35221E+01  5600   0.209E+00    0.462E-03
DAV:  19    -0.225321034537E+02   -0.14510E-03   -0.26204E-05  6300   0.355E-02    0.110E-03
DAV:  20    -0.225321579171E+02   -0.54463E-04   -0.37133E-06  5400   0.134E-02    0.565E-04
DAV:  21    -0.225321634624E+02   -0.55453E-05   -0.48793E-07  5328   0.476E-03    0.492E-04
DAV:  22    -0.225321652396E+02   -0.17772E-05   -0.96618E-07  5020   0.397E-03    0.460E-04
DAV:  23    -0.225321636905E+02    0.15491E-05   -0.99726E-07  5092   0.388E-03    0.444E-04
DAV:  24    -0.225321649770E+02   -0.12864E-05   -0.20461E-07  4688   0.187E-03    0.440E-04
DAV:  25    -0.225321653528E+02   -0.37582E-06   -0.12191E-07  4504   0.152E-03    0.437E-04
DAV:  26    -0.225321661430E+02   -0.79025E-06   -0.23450E-07  4232   0.189E-03    0.434E-04
DAV:  27    -0.225321664008E+02   -0.25774E-06   -0.74108E-08  4172   0.101E-03    0.431E-04
DAV:  28    -0.225321659867E+02    0.41408E-06   -0.22370E-07  4044   0.191E-03    0.435E-04
DAV:  29    -0.225321651643E+02    0.82235E-06   -0.19235E-07  4040   0.150E-03    0.443E-04
DAV:  30    -0.225321645941E+02    0.57018E-06   -0.98223E-08  4212   0.147E-03    0.447E-04
DAV:  31    -0.225321641140E+02    0.48010E-06   -0.14162E-07  3892   0.173E-03    0.452E-04
DAV:  32    -0.225321637376E+02    0.37647E-06   -0.58637E-08  3764   0.117E-03    0.452E-04
DAV:  33    -0.225321637348E+02    0.27944E-08   -0.49070E-08  3672   0.103E-03
  14 F= -.22532164E+02 E0= -.22521120E+02  d E =0.307260E-04  mag=     0.0000
       N       E                     dE             d eps       ncg     rms          rms(c)
DAV:   1    -0.225321134142E+02    0.50323E-04   -0.74365E-03  6092   0.108E+00    0.419E-02
DAV:   2    -0.225320629580E+02    0.50456E-04   -0.91889E-04  6332   0.228E-01    0.190E-02
DAV:   3    -0.225320590077E+02    0.39502E-05   -0.26425E-05  7684   0.419E-02    0.150E-02
DAV:   4    -0.225320960136E+02   -0.37006E-04   -0.10820E-05  6868   0.224E-02    0.374E-03
DAV:   5    -0.225321687510E+02   -0.72737E-04   -0.89229E-06  4980   0.109E-02    0.244E-03
DAV:   6    -0.225322037867E+02   -0.35036E-04   -0.10840E-05  5176   0.108E-02    0.228E-03
DAV:   7    -0.225322587891E+02   -0.55002E-04   -0.15540E-05  5596   0.947E-03    0.133E-03
DAV:   8    -0.225322495203E+02    0.92688E-05   -0.27315E-03  4620   0.765E-03    0.970E-04
DAV:   9    -0.225322764394E+02   -0.26919E-04   -0.24238E-06  4888   0.514E-03    0.387E-04
DAV:  10    -0.225341821815E+02   -0.19057E-02   -0.27899E-04  5704   0.691E-03    0.578E-02
DAV:  11    -0.225322581905E+02    0.19240E-02   -0.78359E-01  4560   0.552E-02    0.551E-04
DAV:  12    -0.225633367148E+02   -0.31079E-01   -0.36112E-03  4976   0.681E-03    0.322E-01
DAV:  13    -0.225322267720E+02    0.31110E-01   -0.40369E+00  5368   0.109E-01    0.533E-04
DAV:  14    -0.225322458550E+02   -0.19083E-04   -0.22377E-06  5188   0.867E-03    0.220E-04
DAV:  15    -0.225322475488E+02   -0.16938E-05   -0.85241E-07  4868   0.349E-03    0.136E-04
DAV:  16    -0.225322482949E+02   -0.74614E-06   -0.64205E-07  4996   0.271E-03    0.125E-04
DAV:  17    -0.225322496246E+02   -0.13297E-05   -0.94882E-07  4960   0.319E-03    0.110E-04
DAV:  18    -0.225543405333E+02   -0.22091E-01   -0.10922E-02  5300   0.516E-03    0.294E-01
DAV:  19    -0.225322119361E+02    0.22129E-01   -0.47050E+00  5036   0.184E-01    0.633E-04
DAV:  20    -0.225322236835E+02   -0.11747E-04   -0.43875E-06  5300   0.979E-03    0.304E-04
DAV:  21    -0.225322330081E+02   -0.93246E-05   -0.15728E-06  5252   0.415E-03    0.185E-04
DAV:  22    -0.225322523790E+02   -0.19371E-04   -0.55753E-06  5780   0.380E-03    0.151E-04
DAV:  23    -0.225322683558E+02   -0.15977E-04   -0.11618E-05  4720   0.542E-03    0.190E-04
DAV:  24    -0.225322694009E+02   -0.10451E-05   -0.15424E-03  5032   0.740E-03    0.153E-04
DAV:  25    -0.225322687779E+02    0.62291E-06   -0.24490E-06  5188   0.396E-03    0.140E-04
DAV:  26    -0.225322703494E+02   -0.15714E-05   -0.17320E-06  4808   0.367E-03    0.135E-04
DAV:  27    -0.225322755179E+02   -0.51685E-05   -0.23001E-06  4708   0.416E-03    0.523E-04
DAV:  28    -0.225322607017E+02    0.14816E-04   -0.24142E-03  4488   0.141E-03    0.134E-04
DAV:  29    -0.225322557518E+02    0.49499E-05   -0.86234E-08  4068   0.172E-03    0.127E-04
DAV:  30    -0.225322576417E+02   -0.18898E-05   -0.50921E-08  4308   0.124E-03    0.127E-04
DAV:  31    -0.225322591245E+02   -0.14829E-05   -0.36049E-08  4312   0.112E-03    0.123E-04
DAV:  32    -0.225322603545E+02   -0.12300E-05   -0.29219E-08  4124   0.953E-04    0.120E-04
DAV:  33    -0.225322619471E+02   -0.15926E-05   -0.77980E-08  4188   0.134E-03    0.117E-04
DAV:  34    -0.225322634638E+02   -0.15167E-05   -0.28245E-07  4028   0.176E-03    0.115E-04
DAV:  35    -0.225322649385E+02   -0.14748E-05   -0.12704E-07  3760   0.126E-03    0.114E-04
DAV:  36    -0.225322658551E+02   -0.91653E-06   -0.85042E-09  4088   0.573E-04    0.114E-04
DAV:  37    -0.225322684932E+02   -0.26382E-05   -0.25029E-08  3992   0.886E-04    0.113E-04
DAV:  38    -0.225322717609E+02   -0.32676E-05   -0.11466E-07  3984   0.144E-03    0.112E-04
DAV:  39    -0.225322713043E+02    0.45661E-06   -0.76804E-08  4064   0.122E-03    0.112E-04
DAV:  40    -0.225322716493E+02   -0.34506E-06   -0.21710E-08  3960   0.725E-04    0.111E-04
DAV:  41    -0.225322724267E+02   -0.77740E-06   -0.49946E-08  4272   0.105E-03    0.109E-04
DAV:  42    -0.225322719906E+02    0.43615E-06   -0.29493E-08  4060   0.962E-04    0.109E-04
DAV:  43    -0.225322719059E+02    0.84709E-07   -0.92848E-09  3776   0.481E-04
  15 F= -.22532272E+02 E0= -.22521211E+02  d E =-.774450E-04  mag=     0.0000
       N       E                     dE             d eps       ncg     rms          rms(c)
DAV:   1    -0.225322701078E+02    0.18828E-05   -0.36312E-04  6168   0.236E-01    0.910E-03
DAV:   2    -0.225322804897E+02   -0.10382E-04   -0.45172E-05  6180   0.505E-02    0.423E-03
DAV:   3    -0.225322895556E+02   -0.90659E-05   -0.21459E-06  6020   0.113E-02    0.316E-03
DAV:   4    -0.245959757222E+02   -0.20637E+01   -0.12747E+01  5892   0.999E-03    0.275E+00
DAV:   5    -0.225324342623E+02    0.20635E+01   -0.52693E+01  5624   0.211E+00    0.349E-03
DAV:   6    -0.225322207210E+02    0.21354E-03   -0.16160E-05  6276   0.629E-02    0.119E-03
DAV:   7    -0.225322629243E+02   -0.42203E-04   -0.21687E-06  5028   0.105E-02    0.858E-04
DAV:   8    -0.225322665591E+02   -0.36348E-05   -0.24990E-06  4644   0.603E-03    0.670E-04
DAV:   9    -0.225322678061E+02   -0.12470E-05   -0.34091E-06  4740   0.554E-03    0.281E-04
DAV:  10    -0.225322661177E+02    0.16885E-05   -0.13117E-06  4820   0.351E-03    0.164E-04
DAV:  11    -0.225322665395E+02   -0.42188E-06   -0.50623E-07  5140   0.287E-03    0.128E-04
DAV:  12    -0.225322679872E+02   -0.14477E-05   -0.53993E-07  4852   0.216E-03    0.114E-04
DAV:  13    -0.225322706055E+02   -0.26183E-05   -0.25138E-06  4800   0.371E-03    0.101E-04
DAV:  14    -0.225322729775E+02   -0.23720E-05   -0.30717E-06  4696   0.499E-03    0.905E-05
DAV:  15    -0.225322749587E+02   -0.19812E-05   -0.21869E-06  5160   0.365E-03    0.906E-05
DAV:  16    -0.225322761618E+02   -0.12031E-05   -0.60012E-07  5076   0.279E-03    0.932E-05
DAV:  17    -0.225322766580E+02   -0.49616E-06   -0.35547E-07  4552   0.206E-03    0.898E-05
DAV:  18    -0.225322778303E+02   -0.11723E-05   -0.46792E-07  4696   0.217E-03    0.879E-05
DAV:  19    -0.225322803850E+02   -0.25546E-05   -0.10094E-06  4676   0.297E-03    0.862E-05
DAV:  20    -0.225322826144E+02   -0.22294E-05   -0.16307E-06  5104   0.296E-03    0.852E-05
DAV:  21    -0.225322868251E+02   -0.42107E-05   -0.45977E-06  4820   0.428E-03    0.779E-05
DAV:  22    -0.225324542232E+02   -0.16740E-03   -0.59790E-04  4764   0.239E-03    0.732E-03
DAV:  23    -0.225322792208E+02    0.17500E-03   -0.35703E-02  4392   0.803E-03    0.937E-05
DAV:  24    -0.225322783402E+02    0.88061E-06   -0.14242E-06  5112   0.269E-03    0.903E-05
DAV:  25    -0.225322778087E+02    0.53153E-06   -0.75366E-07  4780   0.226E-03    0.873E-05
DAV:  26    -0.225322790099E+02   -0.12013E-05   -0.38392E-07  4320   0.209E-03    0.878E-05
DAV:  27    -0.225322790367E+02   -0.26839E-07   -0.13211E-08  4668   0.690E-04
  16 F= -.22532279E+02 E0= -.22521222E+02  d E =-.845759E-04  mag=    -0.0000
       N       E                     dE             d eps       ncg     rms          rms(c)
DAV:   1    -0.225322789266E+02    0.83299E-07   -0.15033E-05  6008   0.477E-02    0.182E-03
DAV:   2    -0.225322811716E+02   -0.22450E-05   -0.11728E-05  6548   0.126E-02    0.790E-04
DAV:   3    -0.225322830515E+02   -0.18799E-05   -0.19853E-05  4484   0.838E-03    0.644E-04
DAV:   4    -0.225322783300E+02    0.47215E-05   -0.68890E-06  5176   0.632E-03    0.254E-04
DAV:   5    -0.225322795277E+02   -0.11977E-05   -0.20503E-06  5188   0.363E-03    0.145E-04
DAV:   6    -0.225322816367E+02   -0.21090E-05   -0.12102E-06  4400   0.333E-03    0.123E-04
DAV:   7    -0.225322821516E+02   -0.51490E-06   -0.11921E-06  4428   0.287E-03    0.851E-05
DAV:   8    -0.225322861874E+02   -0.40358E-05   -0.34488E-06  4600   0.437E-03    0.435E-05
DAV:   9    -0.226725215193E+02   -0.14024E+00   -0.37862E-01  4904   0.524E-03    0.760E-01
DAV:  10    -0.225321791726E+02    0.14034E+00   -0.12499E+01  4980   0.711E-01    0.126E-03
DAV:  11    -0.225322346888E+02   -0.55516E-04   -0.10533E-05  5844   0.190E-02    0.431E-04
DAV:  12    -0.225322866085E+02   -0.51920E-04   -0.60470E-06  5696   0.726E-03    0.214E-04
DAV:  13    -0.225323057907E+02   -0.19182E-04   -0.31356E-05  4924   0.424E-03    0.174E-04
DAV:  14    -0.228818560965E+02   -0.34955E+00   -0.13011E+00  4932   0.211E-03    0.108E+00
DAV:  15    -0.225322234880E+02    0.34963E+00   -0.16873E+01  4980   0.770E-01    0.139E-03
DAV:  16    -0.225322191541E+02    0.43339E-05   -0.98123E-06  5768   0.201E-02    0.384E-04
DAV:  17    -0.225322367031E+02   -0.17549E-04   -0.91848E-07  5448   0.505E-03    0.252E-04
DAV:  18    -0.225322469424E+02   -0.10239E-04   -0.44100E-07  5316   0.292E-03    0.213E-04
DAV:  19    -0.225322539770E+02   -0.70346E-05   -0.58139E-07  4736   0.284E-03    0.166E-04
DAV:  20    -0.225322613305E+02   -0.73535E-05   -0.84768E-07  4956   0.302E-03    0.134E-04
DAV:  21    -0.225322637197E+02   -0.23892E-05   -0.12139E-06  4444   0.305E-03    0.119E-04
DAV:  22    -0.225322644984E+02   -0.77865E-06   -0.12179E-06  4744   0.255E-03    0.107E-04
DAV:  23    -0.225322643785E+02    0.11988E-06   -0.12061E-06  4292   0.276E-03    0.104E-04
DAV:  24    -0.225322640269E+02    0.35156E-06   -0.17764E-07  4248   0.180E-03    0.103E-04
DAV:  25    -0.225322640657E+02   -0.38773E-07   -0.14630E-07  4060   0.139E-03
  17 F= -.22532264E+02 E0= -.22521208E+02  d E =-.696049E-04  mag=     0.0000
       N       E                     dE             d eps       ncg     rms          rms(c)
DAV:   1    -0.225322638071E+02    0.21979E-06   -0.17896E-06  6588   0.158E-02    0.556E-04
DAV:   2    -0.225322270733E+02    0.36734E-04   -0.15524E-06  4416   0.572E-03    0.236E-04
DAV:   3    -0.225322295946E+02   -0.25213E-05   -0.19862E-06  4396   0.631E-03    0.188E-04
DAV:   4    -0.225322329928E+02   -0.33981E-05   -0.16031E-06  4844   0.499E-03    0.134E-04
DAV:   5    -0.225322422086E+02   -0.92158E-05   -0.28782E-06  4812   0.687E-03    0.667E-05
DAV:   6    -0.225859444536E+02   -0.53702E-01   -0.97299E-02  5172   0.790E-03    0.483E-01
DAV:   7    -0.225321696069E+02    0.53775E-01   -0.80677E+00  4460   0.507E-01    0.843E-04
DAV:   8    -0.225322247766E+02   -0.55170E-04   -0.70249E-06  5020   0.152E-02    0.329E-04
DAV:   9    -0.225322674579E+02   -0.42681E-04   -0.18287E-06  4832   0.607E-03    0.174E-04
DAV:  10    -0.225322755807E+02   -0.81228E-05   -0.83125E-07  4732   0.337E-03    0.153E-04
DAV:  11    -0.225322752197E+02    0.36095E-06   -0.24919E-07  4576   0.213E-03    0.116E-04
DAV:  12    -0.225322777434E+02   -0.25237E-05   -0.23767E-06  4656   0.365E-03    0.101E-04
DAV:  13    -0.225322776631E+02    0.80328E-07   -0.20621E-06  4460   0.372E-03    0.858E-05
DAV:  14    -0.225322779324E+02   -0.26928E-06   -0.59903E-07  4452   0.275E-03    0.710E-05
DAV:  15    -0.225322808181E+02   -0.28857E-05   -0.13152E-06  4784   0.326E-03    0.542E-05
DAV:  16    -0.305513569257E+02   -0.80191E+01   -0.50716E+01  6008   0.844E-03    0.108E+01
DAV:  17    -0.152061127707E+02    0.15345E+02   -0.28667E+02  5704   0.201E+01    0.419E+00
DAV:  18    -0.206592118034E+02   -0.54531E+01   -0.41781E+01  6984   0.419E+00    0.262E+00
DAV:  19    -0.224397547309E+02   -0.17805E+01   -0.15944E+01  7148   0.354E+00    0.427E-01
DAV:  20    -0.225280419936E+02   -0.88287E-01   -0.89001E-01  7188   0.120E+00    0.151E-01
DAV:  21    -0.225313874074E+02   -0.33454E-02   -0.35647E-02  7632   0.324E-01    0.904E-02
DAV:  22    -0.225319688433E+02   -0.58144E-03   -0.13474E-03  7360   0.769E-02    0.713E-02
DAV:  23    -0.225320106509E+02   -0.41808E-04   -0.27007E-05  6688   0.234E-02    0.688E-02
DAV:  24    -0.225320470263E+02   -0.36375E-04   -0.46933E-06  6644   0.148E-02    0.688E-02
DAV:  25    -0.225321032919E+02   -0.56266E-04   -0.25358E-06  6156   0.129E-02    0.669E-02
DAV:  26    -0.225322029826E+02   -0.99691E-04   -0.12921E-05  5572   0.133E-02    0.653E-02
DAV:  27    -0.225322497269E+02   -0.46744E-04   -0.45382E-06  4988   0.103E-02    0.647E-02
DAV:  28    -0.225322944699E+02   -0.44743E-04   -0.46834E-06  5236   0.708E-03    0.627E-02
DAV:  29    -0.225323063725E+02   -0.11903E-04   -0.46612E-07  5760   0.407E-03    0.610E-02
DAV:  30    -0.225322988068E+02    0.75657E-05   -0.26301E-07  4444   0.234E-03    0.596E-02
DAV:  31    -0.225322978496E+02    0.95727E-06   -0.41251E-06  4488   0.439E-03    0.580E-02
DAV:  32    -0.225322884609E+02    0.93886E-05   -0.17332E-06  4584   0.398E-03    0.568E-02
DAV:  33    -0.225322680363E+02    0.20425E-04   -0.13364E-06  5396   0.372E-03    0.529E-02
DAV:  34    -0.225322586838E+02    0.93525E-05   -0.61410E-07  5396   0.260E-03    0.501E-02
DAV:  35    -0.225322477889E+02    0.10895E-04   -0.20649E-07  5508   0.207E-03    0.470E-02
DAV:  36    -0.225322354170E+02    0.12372E-04   -0.61091E-07  5392   0.307E-03    0.396E-02
DAV:  37    -0.225322141319E+02    0.21285E-04   -0.69553E-07  5848   0.386E-03    0.313E-02
DAV:  38    -0.225321926988E+02    0.21433E-04   -0.10798E-06  5200   0.445E-03    0.217E-02
DAV:  39    -0.225321841219E+02    0.85769E-05   -0.39090E-07  5280   0.349E-03    0.182E-02
DAV:  40    -0.225321890259E+02   -0.49040E-05   -0.10896E-07  4368   0.235E-03    0.165E-02
DAV:  41    -0.225321858943E+02    0.31316E-05   -0.15515E-07  4368   0.239E-03    0.151E-02
DAV:  42    -0.225321838049E+02    0.20894E-05   -0.11977E-07  4396   0.215E-03    0.141E-02
DAV:  43    -0.225321844277E+02   -0.62284E-06   -0.44747E-08  3920   0.165E-03    0.138E-02
DAV:  44    -0.225321842180E+02    0.20978E-06   -0.24726E-08  3720   0.140E-03    0.137E-02
DAV:  45    -0.225321847998E+02   -0.58181E-06   -0.30293E-08  3888   0.135E-03    0.136E-02
DAV:  46    -0.225321843283E+02    0.47143E-06   -0.38494E-08  3476   0.124E-03    0.136E-02
DAV:  47    -0.225321840212E+02    0.30715E-06   -0.28827E-08  3288   0.102E-03    0.136E-02
DAV:  48    -0.225321829008E+02    0.11204E-05   -0.77792E-09  3180   0.684E-04    0.135E-02
DAV:  49    -0.225321830556E+02   -0.15487E-06   -0.31280E-08  4060   0.174E-03    0.132E-02
DAV:  50    -0.225321837574E+02   -0.70175E-06   -0.14454E-08  3280   0.113E-03    0.132E-02
DAV:  51    -0.225321841738E+02   -0.41638E-06   -0.10888E-08  3160   0.806E-04    0.132E-02
DAV:  52    -0.225322405203E+02   -0.56347E-04   -0.10629E-05  6200   0.254E-02    0.301E-02
DAV:  53    -0.225322714489E+02   -0.30929E-04   -0.62449E-06  4824   0.109E-02    0.253E-02
DAV:  54    -0.225322969093E+02   -0.25460E-04   -0.62278E-06  5648   0.777E-03    0.234E-02
DAV:  55    -0.225323045165E+02   -0.76071E-05   -0.64745E-06  4308   0.725E-03    0.200E-02
DAV:  56    -0.225322967820E+02    0.77345E-05   -0.19438E-06  5044   0.460E-03    0.162E-02
DAV:  57    -0.225322564236E+02    0.40358E-04   -0.22051E-06  4628   0.395E-03    0.128E-02
DAV:  58    -0.225322468330E+02    0.95906E-05   -0.13377E-06  4092   0.319E-03    0.110E-02
DAV:  59    -0.225322370297E+02    0.98034E-05   -0.83781E-07  4276   0.308E-03    0.846E-03
DAV:  60    -0.225330569493E+02   -0.81992E-03   -0.31029E-06  4672   0.355E-03    0.283E-02
DAV:  61    -0.225322627110E+02    0.79424E-03   -0.28936E-01  4112   0.131E-02    0.684E-03
DAV:  62    -0.225322507693E+02    0.11942E-04   -0.13952E-05  6752   0.208E-02    0.218E-03
DAV:  63    -0.225322422521E+02    0.85171E-05   -0.35557E-06  4924   0.736E-03    0.189E-03
DAV:  64    -0.225322585126E+02   -0.16261E-04   -0.47271E-07  4600   0.417E-03    0.126E-03
DAV:  65    -0.225322537197E+02    0.47929E-05   -0.71564E-07  4500   0.438E-03    0.724E-04
DAV:  66    -0.225322603329E+02   -0.66132E-05   -0.13755E-05  5168   0.677E-03    0.437E-04
DAV:  67    -0.225322549324E+02    0.54005E-05   -0.80152E-06  4856   0.562E-03    0.261E-04
DAV:  68    -0.225322445832E+02    0.10349E-04   -0.48767E-07  5436   0.231E-03    0.209E-04
DAV:  69    -0.225322357734E+02    0.88098E-05   -0.16196E-06  5112   0.266E-03    0.218E-04
DAV:  70    -0.225322278032E+02    0.79703E-05   -0.36538E-06  5512   0.339E-03    0.182E-04
DAV:  71    -0.229314477832E+02   -0.39922E+00   -0.32518E-02  5656   0.632E-03    0.163E+00
DAV:  72    -0.225321440786E+02    0.39930E+00   -0.34433E+01  5088   0.194E+00    0.346E-03
DAV:  73    -0.225321729461E+02   -0.28867E-04   -0.14310E-05  6272   0.365E-02    0.255E-03
DAV:  74    -0.225322214966E+02   -0.48550E-04   -0.29958E-06  5144   0.119E-02    0.121E-03
DAV:  75    -0.225322437266E+02   -0.22230E-04   -0.70742E-07  5168   0.494E-03    0.748E-04
DAV:  76    -0.225322518661E+02   -0.81395E-05   -0.12444E-06  4744   0.426E-03    0.493E-04
DAV:  77    -0.225322548117E+02   -0.29457E-05   -0.22604E-06  5104   0.363E-03    0.340E-04
DAV:  78    -0.225322555185E+02   -0.70671E-06   -0.12333E-06  5472   0.296E-03    0.266E-04
DAV:  79    -0.225322546450E+02    0.87347E-06   -0.10739E-06  4696   0.299E-03    0.260E-04
DAV:  80    -0.225322534103E+02    0.12347E-05   -0.30524E-06  4672   0.342E-03    0.252E-04
DAV:  81    -0.225322535323E+02   -0.12204E-06   -0.90615E-07  4484   0.241E-03    0.244E-04
DAV:  82    -0.225322538733E+02   -0.34098E-06   -0.22700E-07  4064   0.139E-03    0.241E-04
DAV:  83    -0.225322546365E+02   -0.76317E-06   -0.18189E-07  3632   0.140E-03    0.240E-04
DAV:  84    -0.225322547948E+02   -0.15835E-06   -0.12440E-07  3484   0.128E-03    0.237E-04
DAV:  85    -0.225322556943E+02   -0.89949E-06   -0.32105E-07  3492   0.182E-03    0.237E-04
DAV:  86    -0.225322570449E+02   -0.13506E-05   -0.22608E-07  3888   0.144E-03    0.230E-04
DAV:  87    -0.225322572052E+02   -0.16027E-06   -0.60786E-08  4084   0.775E-04    0.229E-04
DAV:  88    -0.225322576605E+02   -0.45536E-06   -0.12065E-07  3364   0.116E-03    0.229E-04
DAV:  89    -0.225322581524E+02   -0.49191E-06   -0.17294E-07  3360   0.119E-03    0.228E-04
DAV:  90    -0.225322585083E+02   -0.35585E-06   -0.18318E-07  3472   0.108E-03    0.226E-04
DAV:  91    -0.225322586628E+02   -0.15454E-06   -0.16212E-07  3424   0.115E-03    0.224E-04
DAV:  92    -0.225322597904E+02   -0.11276E-05   -0.58061E-07  3364   0.189E-03    0.222E-04
DAV:  93    -0.225322600376E+02   -0.24723E-06   -0.79883E-07  3920   0.146E-03    0.221E-04
DAV:  94    -0.225322601086E+02   -0.71021E-07   -0.84603E-07  3464   0.166E-03
  18 F= -.22532260E+02 E0= -.22521203E+02  d E =-.656478E-04  mag=    -0.0001
       N       E                     dE             d eps       ncg     rms          rms(c)
DAV:   1    -0.225322559564E+02    0.40812E-05   -0.22932E-04  5784   0.293E-01    0.566E-03
DAV:   2    -0.225322695703E+02   -0.13614E-04   -0.64762E-05  6008   0.522E-02    0.325E-03
DAV:   3    -0.225322834200E+02   -0.13850E-04   -0.11294E-05  6512   0.155E-02    0.231E-03
DAV:   4    -0.225322866717E+02   -0.32517E-05   -0.22594E-06  4440   0.671E-03    0.128E-03
DAV:   5    -0.225322921587E+02   -0.54871E-05   -0.21626E-06  4124   0.594E-03    0.695E-04
DAV:   6    -0.225322913216E+02    0.83713E-06   -0.45365E-06  5016   0.510E-03    0.313E-04
DAV:   7    -0.225322911988E+02    0.12281E-06   -0.16247E-06  4524   0.439E-03    0.366E-04
DAV:   8    -0.225322909891E+02    0.20970E-06   -0.15514E-06  3840   0.341E-03    0.277E-04
DAV:   9    -0.225322889728E+02    0.20164E-05   -0.18322E-06  4916   0.270E-03    0.165E-04
DAV:  10    -0.225322803931E+02    0.85797E-05   -0.75926E-06  4684   0.463E-03    0.154E-04
DAV:  11    -0.225322788121E+02    0.15810E-05   -0.39678E-06  4240   0.417E-03    0.143E-04
DAV:  12    -0.225322785148E+02    0.29735E-06   -0.14695E-06  4080   0.243E-03    0.106E-04
DAV:  13    -0.225322778315E+02    0.68328E-06   -0.32052E-07  4208   0.166E-03    0.783E-05
DAV:  14    -0.225322751709E+02    0.26605E-05   -0.46562E-07  4348   0.153E-03    0.601E-05
DAV:  15    -0.225322731726E+02    0.19983E-05   -0.52884E-07  4412   0.224E-03    0.326E-05
DAV:  16    -0.225322699867E+02    0.31859E-05   -0.87001E-07  4444   0.240E-03    0.407E-05
DAV:  17    -0.225322670831E+02    0.29037E-05   -0.86735E-07  4740   0.268E-03    0.378E-05
DAV:  18    -0.225322659853E+02    0.10978E-05   -0.13468E-06  4808   0.278E-03    0.214E-05
DAV:  19    -0.225322723235E+02   -0.63382E-05   -0.16008E-05  4548   0.201E-03    0.428E-04
DAV:  20    -0.226739275199E+02   -0.14166E+00   -0.40081E-01  4828   0.360E-03    0.763E-01
DAV:  21    -0.225322518664E+02    0.14168E+00   -0.13114E+01  5040   0.437E-01    0.189E-03
DAV:  22    -0.225322139135E+02    0.37953E-04   -0.46564E-06  5664   0.138E-02    0.841E-04
DAV:  23    -0.225321880101E+02    0.25903E-04   -0.16540E-06  4984   0.561E-03    0.655E-04
DAV:  24    -0.225321816297E+02    0.63804E-05   -0.11654E-06  4876   0.452E-03    0.572E-04
DAV:  25    -0.225321712348E+02    0.10395E-04   -0.16863E-06  4900   0.568E-03    0.563E-04
DAV:  26    -0.225321742715E+02   -0.30367E-05   -0.14762E-06  4968   0.528E-03    0.522E-04
DAV:  27    -0.225321773775E+02   -0.31061E-05   -0.22703E-06  4912   0.635E-03    0.455E-04
DAV:  28    -0.225321835663E+02   -0.61887E-05   -0.12057E-06  4988   0.474E-03    0.447E-04
DAV:  29    -0.225321870777E+02   -0.35114E-05   -0.18438E-06  4828   0.603E-03    0.436E-04
DAV:  30    -0.225321953558E+02   -0.82781E-05   -0.15559E-06  5476   0.559E-03    0.419E-04
DAV:  31    -0.225347877640E+02   -0.25924E-02   -0.28116E-03  5464   0.947E-03    0.718E-02
DAV:  32    -0.225322447506E+02    0.25430E-02   -0.10972E+00  4576   0.872E-02    0.422E-04
DAV:  33    -0.225322405204E+02    0.42302E-05   -0.46696E-06  4796   0.669E-03    0.392E-04
DAV:  34    -0.225322500613E+02   -0.95409E-05   -0.78035E-07  4784   0.353E-03    0.371E-04
DAV:  35    -0.225322507925E+02   -0.73127E-06   -0.98530E-08  4564   0.154E-03    0.356E-04
DAV:  36    -0.225322512874E+02   -0.49483E-06   -0.22347E-07  4428   0.219E-03    0.350E-04
DAV:  37    -0.225322537830E+02   -0.24957E-05   -0.47754E-07  4284   0.246E-03    0.343E-04
DAV:  38    -0.225322568769E+02   -0.30939E-05   -0.13075E-06  4468   0.379E-03    0.331E-04
DAV:  39    -0.228191710109E+02   -0.28691E+00   -0.27983E-06  4596   0.325E-03    0.995E-01
DAV:  40    -0.225321729128E+02    0.28700E+00   -0.15241E+01  5240   0.357E-01    0.268E-03
DAV:  41    -0.225321508512E+02    0.22062E-04   -0.32893E-06  5284   0.164E-02    0.168E-03
DAV:  42    -0.225321783500E+02   -0.27499E-04   -0.12715E-06  4676   0.572E-03    0.113E-03
DAV:  43    -0.225321874469E+02   -0.90969E-05   -0.59727E-07  4636   0.432E-03    0.958E-04
DAV:  44    -0.225321971257E+02   -0.96788E-05   -0.41644E-06  4824   0.636E-03    0.712E-04
DAV:  45    -0.225322383912E+02   -0.41265E-04   -0.52102E-06  4452   0.695E-03    0.645E-04
DAV:  46    -0.225322447972E+02   -0.64061E-05   -0.14712E-06  4596   0.324E-03    0.619E-04
DAV:  47    -0.225322489959E+02   -0.41986E-05   -0.30063E-07  4708   0.188E-03    0.590E-04
DAV:  48    -0.225322510612E+02   -0.20654E-05   -0.67636E-08  4292   0.120E-03    0.585E-04
DAV:  49    -0.225322554779E+02   -0.44167E-05   -0.22302E-07  4364   0.176E-03    0.578E-04
DAV:  50    -0.225322571087E+02   -0.16308E-05   -0.16048E-07  4352   0.159E-03    0.583E-04
DAV:  51    -0.225322588307E+02   -0.17220E-05   -0.11417E-07  4064   0.128E-03    0.587E-04
DAV:  52    -0.225322592836E+02   -0.45283E-06   -0.48685E-08  3752   0.102E-03    0.590E-04
DAV:  53    -0.225322589906E+02    0.29296E-06   -0.14681E-07  3588   0.124E-03    0.588E-04
DAV:  54    -0.225322590736E+02   -0.83020E-07   -0.41115E-08  3396   0.813E-04
  19 F= -.22532259E+02 E0= -.22521211E+02  d E =0.103499E-05  mag=     0.0005
       N       E                     dE             d eps       ncg     rms          rms(c)
DAV:   1    -0.225322583545E+02    0.63614E-06   -0.56141E-05  5856   0.148E-01    0.290E-03
DAV:   2    -0.225322505161E+02    0.78383E-05   -0.13319E-05  5748   0.266E-02    0.167E-03
DAV:   3    -0.225322463328E+02    0.41833E-05   -0.12896E-06  5388   0.735E-03    0.115E-03
DAV:   4    -0.225322470452E+02   -0.71237E-06   -0.73769E-07  4212   0.429E-03    0.727E-04
DAV:   5    -0.225322477488E+02   -0.70358E-06   -0.54857E-07  3916   0.366E-03    0.382E-04
DAV:   6    -0.225322482143E+02   -0.46554E-06   -0.14510E-07  4332   0.222E-03    0.309E-04
DAV:   7    -0.225322472684E+02    0.94589E-06   -0.11399E-07  4060   0.195E-03    0.300E-04
DAV:   8    -0.225322507023E+02   -0.34339E-05   -0.20843E-06  4376   0.446E-03    0.225E-04
DAV:   9    -0.225322469112E+02    0.37911E-05   -0.15160E-06  4552   0.458E-03    0.152E-04
DAV:  10    -0.225322478190E+02   -0.90786E-06   -0.25938E-06  4796   0.479E-03    0.183E-04
DAV:  11    -0.225322449931E+02    0.28259E-05   -0.69491E-07  4484   0.313E-03    0.138E-04
DAV:  12    -0.225322438513E+02    0.11418E-05   -0.34167E-07  4292   0.234E-03    0.762E-05
DAV:  13    -0.225322422994E+02    0.15518E-05   -0.59745E-06  5156   0.582E-03    0.518E-05
DAV:  14    -0.251610627136E+02   -0.26288E+01   -0.11967E+01  5476   0.661E-03    0.474E+00
DAV:  15    -0.225314402619E+02    0.26296E+01   -0.12552E+02  5372   0.580E+00    0.189E-02
DAV:  16    -0.225318374155E+02   -0.39715E-03   -0.16503E-04  5896   0.196E-01    0.440E-03
DAV:  17    -0.225321179379E+02   -0.28052E-03   -0.24547E-05  6560   0.382E-02    0.177E-03
DAV:  18    -0.225321943976E+02   -0.76460E-04   -0.34189E-06  5168   0.148E-02    0.130E-03
DAV:  19    -0.225322298047E+02   -0.35407E-04   -0.16923E-06  5048   0.683E-03    0.106E-03
DAV:  20    -0.225322349061E+02   -0.51014E-05   -0.11158E-06  5480   0.397E-03    0.784E-04
DAV:  21    -0.225322404843E+02   -0.55782E-05   -0.86495E-07  4888   0.380E-03    0.550E-04
DAV:  22    -0.225322582266E+02   -0.17742E-04   -0.10400E-05  5948   0.530E-03    0.359E-04
DAV:  23    -0.225429046760E+02   -0.10646E-01   -0.93760E-03  5612   0.771E-03    0.204E-01
DAV:  24    -0.225322402295E+02    0.10664E-01   -0.31217E+00  4688   0.166E-01    0.419E-04
DAV:  25    -0.225322852443E+02   -0.45015E-04   -0.89762E-06  5556   0.870E-03    0.575E-04
DAV:  26    -0.225322916544E+02   -0.64101E-05   -0.41552E-06  4996   0.570E-03    0.354E-04
DAV:  27    -0.225322944223E+02   -0.27678E-05   -0.40650E-06  4708   0.446E-03    0.195E-04
DAV:  28    -0.225322955483E+02   -0.11261E-05   -0.47273E-07  4680   0.195E-03    0.171E-04
DAV:  29    -0.225322948652E+02    0.68310E-06   -0.11113E-06  4892   0.168E-03    0.155E-04
DAV:  30    -0.225322966881E+02   -0.18229E-05   -0.33636E-07  4584   0.129E-03    0.126E-04
DAV:  31    -0.249515167156E+02   -0.24192E+01   -0.10517E+01  5260   0.208E-03    0.497E+00
DAV:  32    -0.225311164866E+02    0.24204E+01   -0.14421E+02  5680   0.793E+00    0.286E-02
DAV:  33    -0.225317385653E+02   -0.62208E-03   -0.12226E-04  5996   0.189E-01    0.576E-03
DAV:  34    -0.225320707072E+02   -0.33214E-03   -0.13591E-05  6408   0.306E-02    0.249E-03
DAV:  35    -0.225321712524E+02   -0.10055E-03   -0.27028E-06  5468   0.123E-02    0.179E-03
DAV:  36    -0.225321985852E+02   -0.27333E-04   -0.77954E-07  5228   0.465E-03    0.165E-03
DAV:  37    -0.225322004252E+02   -0.18401E-05   -0.13437E-07  5048   0.239E-03    0.147E-03
DAV:  38    -0.225322000439E+02    0.38134E-06   -0.17878E-07  4820   0.224E-03    0.144E-03
DAV:  39    -0.225322012263E+02   -0.11824E-05   -0.19893E-07  4924   0.220E-03    0.143E-03
DAV:  40    -0.225322015662E+02   -0.33992E-06   -0.94772E-08  4608   0.165E-03    0.142E-03
DAV:  41    -0.225322027285E+02   -0.11622E-05   -0.37882E-07  4644   0.203E-03    0.142E-03
DAV:  42    -0.225322050195E+02   -0.22910E-05   -0.28515E-07  4240   0.200E-03    0.141E-03
DAV:  43    -0.225322072931E+02   -0.22736E-05   -0.51092E-07  4064   0.233E-03    0.141E-03
DAV:  44    -0.225322084345E+02   -0.11414E-05   -0.42124E-07  3892   0.198E-03    0.141E-03
DAV:  45    -0.225322087913E+02   -0.35679E-06   -0.48969E-07  3816   0.171E-03    0.141E-03
DAV:  46    -0.225322079749E+02    0.81640E-06   -0.33588E-07  3692   0.159E-03    0.141E-03
DAV:  47    -0.225322078376E+02    0.13727E-06   -0.29882E-08  3544   0.776E-04    0.141E-03
DAV:  48    -0.225322077928E+02    0.44871E-07   -0.29625E-07  3628   0.151E-03
  20 F= -.22532208E+02 E0= -.22521155E+02  d E =0.523159E-04  mag=     0.0008
