 vasp.5.4.1 24Jun15 (build Dec 08 2016 12:24:04) complex                        
  
 executed on           IFC91_ompi date 2017.09.15  18:48:46
 running on   24 total cores
 distrk:  each k-point on   24 cores,    1 groups
 distr:  one band on NCORES_PER_BAND=   6 cores,    4 groups


--------------------------------------------------------------------------------------------------------


 INCAR:
 POTCAR:    PAW_PBE Sc_sv 07Sep2000               
 POTCAR:    PAW_PBE H 15Jun2001                   
 POTCAR:    PAW_PBE Cl 06Sep2000                  

 ----------------------------------------------------------------------------- 
|                                                                             |
|  ADVICE TO THIS USER RUNNING 'VASP/VAMP'   (HEAR YOUR MASTER'S VOICE ...):  |
|                                                                             |
|      You have switched on vdW-DFT.                                          |
|      This routine was written and supplied by Jiri Klimes.                  |
|      We recommed that you carefully read and cite the following             |
|      publication                                                            |
|      J. Klimes, D.R. Bowler, A. Michelides                                  |
|        J. Phys.: Cond Matt. 22 022201 (2010)                                |
|      J. Klimes, D.R. Bowler, A. Michelides                                  |
|        Phys. Rev. B. 83, 195131 (2011)                                      |
|      and references therein.                                                |
|                                                                             |
 ----------------------------------------------------------------------------- 

 POTCAR:    PAW_PBE Sc_sv 07Sep2000               
   VRHFIN =Sc: 3p4s3d                                                           
   LEXCH  = PE                                                                  
   EATOM  =  1273.2868 eV,   93.5839 Ry                                         
                                                                                
   TITEL  = PAW_PBE Sc_sv 07Sep2000                                             
   LULTRA =        F    use ultrasoft PP ?                                      
   IUNSCR =        1    unscreen: 0-lin 1-nonlin 2-no                           
   RPACOR =    2.200    partial core radius                                     
   POMASS =   44.956; ZVAL   =   11.000    mass and valenz                      
   RCORE  =    2.500    outmost cutoff radius                                   
   RWIGS  =    2.700; RWIGS  =    1.429    wigner-seitz radius (au A)           
   ENMAX  =  222.660; ENMIN  =  166.995 eV                                      
   RCLOC  =    1.805    cutoff for local pot                                    
   LCOR   =        T    correct aug charges                                     
   LPAW   =        T    paw PP                                                  
   EAUG   =  443.063                                                            
   RMAX   =    2.551    core radius for proj-oper                               
   RAUG   =    1.300    factor for augmentation sphere                          
   RDEP   =    2.650    radius for radial grids                                 
   RDEPT  =    2.038    core radius for aug-charge                              
                                                                                
   Atomic configuration                                                         
    8 entries                                                                   
     n  l   j            E        occ.                                          
     1  0  0.50     -4394.2533   2.0000                                         
     2  0  0.50      -471.0040   2.0000                                         
     2  1  1.50      -384.9788   6.0000                                         
     3  0  0.50       -52.1410   2.0000                                         
     4  0  0.50        -3.5584   1.0000                                         
     3  1  1.50       -30.8841   6.0000                                         
     3  2  2.50        -1.3655   2.0000                                         
     4  3  2.50        -1.3606   0.0000                                         
   Description                                                                  
     l       E           TYP  RCUT    TYP  RCUT                                 
     0    -52.1409870     23  1.800                                             
     0     -3.5583698     23  2.500                                             
     1    -30.8840697     23  2.300                                             
     1      4.0817478     23  2.300                                             
     2     -1.3655397     23  2.500                                             
     2      0.3564476     23  2.500                                             
  local pseudopotential read in
  partial core-charges read in
  partial kinetic energy density read in
  atomic valenz-charges read in
  non local Contribution for L=           0  read in
    real space projection operators read in
  non local Contribution for L=           0  read in
    real space projection operators read in
  non local Contribution for L=           1  read in
    real space projection operators read in
  non local Contribution for L=           1  read in
    real space projection operators read in
  non local Contribution for L=           2  read in
    real space projection operators read in
  non local Contribution for L=           2  read in
    real space projection operators read in
    PAW grid and wavefunctions read in
 
   number of l-projection  operators is LMAX  =           6
   number of lm-projection operators is LMMAX =          18
 
 POTCAR:    PAW_PBE H 15Jun2001                   
   VRHFIN =H: ultrasoft test                                                    
   LEXCH  = PE                                                                  
   EATOM  =    12.4884 eV,    0.9179 Ry                                         
                                                                                
   TITEL  = PAW_PBE H 15Jun2001                                                 
   LULTRA =        F    use ultrasoft PP ?                                      
   IUNSCR =        0    unscreen: 0-lin 1-nonlin 2-no                           
   RPACOR =    0.000    partial core radius                                     
   POMASS =    1.000; ZVAL   =    1.000    mass and valenz                      
   RCORE  =    1.100    outmost cutoff radius                                   
   RWIGS  =    0.700; RWIGS  =    0.370    wigner-seitz radius (au A)           
   ENMAX  =  250.000; ENMIN  =  200.000 eV                                      
   RCLOC  =    0.701    cutoff for local pot                                    
   LCOR   =        T    correct aug charges                                     
   LPAW   =        T    paw PP                                                  
   EAUG   =  400.000                                                            
   RMAX   =    1.123    core radius for proj-oper                               
   RAUG   =    1.200    factor for augmentation sphere                          
   RDEP   =    1.112    radius for radial grids                                 
   RDEPT  =    0.926    core radius for aug-charge                              
                                                                                
   Atomic configuration                                                         
    2 entries                                                                   
     n  l   j            E        occ.                                          
     1  0  0.50        -6.4927   1.0000                                         
     2  1  0.50        -3.4015   0.0000                                         
   Description                                                                  
     l       E           TYP  RCUT    TYP  RCUT                                 
     0     -6.4927494     23  1.100                                             
     0      6.8029130     23  1.100                                             
     1     -4.0817478     23  1.100                                             
  local pseudopotential read in
  atomic valenz-charges read in
  non local Contribution for L=           0  read in
    real space projection operators read in
  non local Contribution for L=           0  read in
    real space projection operators read in
  non local Contribution for L=           1  read in
    real space projection operators read in
    PAW grid and wavefunctions read in
 
   number of l-projection  operators is LMAX  =           3
   number of lm-projection operators is LMMAX =           5
 
 POTCAR:    PAW_PBE Cl 06Sep2000                  
   VRHFIN =Cl: s2p5                                                             
   LEXCH  = PE                                                                  
   EATOM  =   409.7259 eV,   30.1140 Ry                                         
                                                                                
   TITEL  = PAW_PBE Cl 06Sep2000                                                
   LULTRA =        F    use ultrasoft PP ?                                      
   IUNSCR =        1    unscreen: 0-lin 1-nonlin 2-no                           
   RPACOR =    1.500    partial core radius                                     
   POMASS =   35.453; ZVAL   =    7.000    mass and valenz                      
   RCORE  =    1.900    outmost cutoff radius                                   
   RWIGS  =    2.100; RWIGS  =    1.111    wigner-seitz radius (au A)           
   ENMAX  =  262.472; ENMIN  =  196.854 eV                                      
   ICORE  =        2    local potential                                         
   LCOR   =        T    correct aug charges                                     
   LPAW   =        T    paw PP                                                  
   EAUG   =  356.192                                                            
   DEXC   =    0.000                                                            
   RMAX   =    1.945    core radius for proj-oper                               
   RAUG   =    1.300    factor for augmentation sphere                          
   RDEP   =    2.020    radius for radial grids                                 
   RDEPT  =    1.678    core radius for aug-charge                              
                                                                                
   Atomic configuration                                                         
    6 entries                                                                   
     n  l   j            E        occ.                                          
     1  0  0.50     -2751.1850   2.0000                                         
     2  0  0.50      -252.6861   2.0000                                         
     2  1  1.50      -191.6157   6.0000                                         
     3  0  0.50       -20.6916   2.0000                                         
     3  1  0.50        -8.5949   5.0000                                         
     3  2  1.50        -8.1635   0.0000                                         
   Description                                                                  
     l       E           TYP  RCUT    TYP  RCUT                                 
     0    -20.6915656     23  1.900                                             
     0    -22.0521482     23  1.900                                             
     1     -8.5948577     23  1.900                                             
     1     -5.3847331     23  1.900                                             
     2     -8.1634956     23  1.900                                             
  local pseudopotential read in
  partial core-charges read in
  partial kinetic energy density read in
  atomic valenz-charges read in
  non local Contribution for L=           0  read in
    real space projection operators read in
  non local Contribution for L=           0  read in
    real space projection operators read in
  non local Contribution for L=           1  read in
    real space projection operators read in
  non local Contribution for L=           1  read in
    real space projection operators read in
    PAW grid and wavefunctions read in
 
   number of l-projection  operators is LMAX  =           4
   number of lm-projection operators is LMMAX =           8
 

 ----------------------------------------------------------------------------- 
|                                                                             |
|  ADVICE TO THIS USER RUNNING 'VASP/VAMP'   (HEAR YOUR MASTER'S VOICE ...):  |
|                                                                             |
|      You enforced a specific xc-type in the INCAR file,                     |
|      a different type was found on the POTCAR file                          |
|          I HOPE YOU KNOW, WHAT YOU ARE  DOING                               |
|                                                                             |
 ----------------------------------------------------------------------------- 

  PAW_PBE Sc_sv 07Sep2000               :
 energy of atom  1       EATOM=-1273.2868
 kinetic energy error for atom=    0.0012 (will be added to EATOM!!)
  PAW_PBE H 15Jun2001                   :
 energy of atom  2       EATOM=  -12.4884
 kinetic energy error for atom=    0.0003 (will be added to EATOM!!)
  PAW_PBE Cl 06Sep2000                  :
 energy of atom  3       EATOM= -409.7259
 kinetic energy error for atom=    0.0012 (will be added to EATOM!!)
 
 
 POSCAR: Surf-mp-24081                           
  positions in direct lattice
  No initial velocities read in
 exchange correlation table for  LEXCH =       42
   RHO(1)=    0.500       N(1)  =     2000
   RHO(2)=  100.500       N(2)  =     4000
 


--------------------------------------------------------------------------------------------------------


 ion  position               nearest neighbor table
   1  0.667  0.333  0.451-   3 2.00   4 2.09   4 2.09   4 2.09   5 2.59   5 2.59   5 2.59   2 3.23
                             2 3.23   2 3.23
   2  0.333  0.667  0.549-   4 2.00   3 2.09   3 2.09   3 2.09   6 2.59   6 2.59   6 2.59   1 3.23
                             1 3.23   1 3.23
   3  0.667  0.333  0.529-   1 2.00   2 2.09   2 2.09   2 2.09
   4  0.333  0.667  0.471-   2 2.00   1 2.09   1 2.09   1 2.09
   5  0.000  0.000  0.388-   1 2.59   1 2.59   1 2.59
   6  0.000  0.000  0.612-   2 2.59   2 2.59   2 2.59
 
  LATTYP: Found a hexagonal cell.
 ALAT       =     3.5101207878
 C/A-ratio  =     7.3339826622
  
  Lattice vectors:
  
 A1 = (   3.5101210000,   0.0000000000,   0.0000000000)
 A2 = (  -1.7550610000,   3.0398540000,   0.0000000000)
 A3 = (   0.0000000000,   0.0000000000,  25.7431650000)


Analysis of symmetry for initial positions (statically):
=====================================================================
 Subroutine PRICEL returns:
 Original cell was already a primitive cell.
 

 Routine SETGRP: Setting up the symmetry group for a 
 hexagonal supercell.


 Subroutine GETGRP returns: Found 12 space group operations
 (whereof 12 operations were pure point group operations)
 out of a pool of 24 trial point group operations.


The static configuration has the point symmetry D_3d.


Analysis of symmetry for dynamics (positions and initial velocities):
=====================================================================
 Subroutine PRICEL returns:
 Original cell was already a primitive cell.
 

 Routine SETGRP: Setting up the symmetry group for a 
 hexagonal supercell.


 Subroutine GETGRP returns: Found 12 space group operations
 (whereof 12 operations were pure point group operations)
 out of a pool of 24 trial point group operations.


The dynamic configuration has the point symmetry D_3d.


Analysis of magnetic symmetry:
=====================================================================
 Subroutine PRICEL returns:
 Original cell was already a primitive cell.
 

 Subroutine MAGSYM returns: Found 12 space group operations
 (whereof 12 operations were pure point group operations)
 out of a pool of 12 trial space group operations
 (whereof 12 operations were pure point group operations)
 and found also     1 'primitive' translations


The magnetic configuration has the point symmetry D_3d.
 
 
 KPOINTS: Automatic kpoint scheme                 

Automatic generation of k-mesh.
Space group operators:
 irot       det(A)        alpha          n_x          n_y          n_z        tau_x        tau_y        tau_z
    1     1.000000     0.000000     1.000000     0.000000     0.000000     0.000000     0.000000     0.000000
    2    -1.000000     0.000000     1.000000     0.000000     0.000000     0.000000     0.000000     0.000000
    3     1.000000   120.000000     0.000000     0.000000    -1.000000     0.000000     0.000000     0.000000
    4    -1.000000   120.000000     0.000000     0.000000    -1.000000     0.000000     0.000000     0.000000
    5     1.000000   120.000000     0.000000     0.000000     1.000000     0.000000     0.000000     0.000000
    6    -1.000000   120.000000     0.000000     0.000000     1.000000     0.000000     0.000000     0.000000
    7     1.000000   180.000000     1.000000     0.000000     0.000000     0.000000     0.000000     0.000000
    8    -1.000000   180.000000     1.000000     0.000000     0.000000     0.000000     0.000000     0.000000
    9     1.000000   180.000000     0.500000    -0.866025     0.000000     0.000000     0.000000     0.000000
   10    -1.000000   180.000000     0.500000    -0.866025     0.000000     0.000000     0.000000     0.000000
   11     1.000000   180.000000    -0.500000    -0.866025     0.000000     0.000000     0.000000     0.000000
   12    -1.000000   180.000000    -0.500000    -0.866025     0.000000     0.000000     0.000000     0.000000
 
 Subroutine IBZKPT returns following result:
 ===========================================
 
 Found     44 irreducible k-points:
 
 Following reciprocal coordinates:
            Coordinates               Weight
  0.000000  0.000000  0.000000      1.000000
  0.050000  0.000000  0.000000      6.000000
  0.100000  0.000000  0.000000      6.000000
  0.150000  0.000000  0.000000      6.000000
  0.200000 -0.000000  0.000000      6.000000
  0.250000  0.000000  0.000000      6.000000
  0.300000 -0.000000  0.000000      6.000000
  0.350000 -0.000000  0.000000      6.000000
  0.400000 -0.000000  0.000000      6.000000
  0.450000 -0.000000  0.000000      6.000000
  0.500000  0.000000  0.000000      3.000000
  0.050000  0.050000  0.000000      6.000000
  0.100000  0.050000  0.000000     12.000000
  0.150000  0.050000  0.000000     12.000000
  0.200000  0.050000  0.000000     12.000000
  0.250000  0.050000  0.000000     12.000000
  0.300000  0.050000  0.000000     12.000000
  0.350000  0.050000  0.000000     12.000000
  0.400000  0.050000  0.000000     12.000000
  0.450000  0.050000  0.000000     12.000000
  0.100000  0.100000  0.000000      6.000000
  0.150000  0.100000  0.000000     12.000000
  0.200000  0.100000  0.000000     12.000000
  0.250000  0.100000  0.000000     12.000000
  0.300000  0.100000  0.000000     12.000000
  0.350000  0.100000  0.000000     12.000000
  0.400000  0.100000  0.000000     12.000000
  0.450000  0.100000  0.000000      6.000000
  0.150000  0.150000  0.000000      6.000000
  0.200000  0.150000  0.000000     12.000000
  0.250000  0.150000  0.000000     12.000000
  0.300000  0.150000  0.000000     12.000000
  0.350000  0.150000  0.000000     12.000000
  0.400000  0.150000  0.000000     12.000000
  0.200000  0.200000  0.000000      6.000000
  0.250000  0.200000  0.000000     12.000000
  0.300000  0.200000  0.000000     12.000000
  0.350000  0.200000  0.000000     12.000000
  0.400000  0.200000  0.000000      6.000000
  0.250000  0.250000  0.000000      6.000000
  0.300000  0.250000  0.000000     12.000000
  0.350000  0.250000  0.000000     12.000000
  0.300000  0.300000  0.000000      6.000000
  0.350000  0.300000  0.000000      6.000000
 
 Following cartesian coordinates:
            Coordinates               Weight
  0.000000  0.000000  0.000000      1.000000
  0.014245  0.008224  0.000000      6.000000
  0.028489  0.016448  0.000000      6.000000
  0.042734  0.024672  0.000000      6.000000
  0.056978  0.032896  0.000000      6.000000
  0.071223  0.041120  0.000000      6.000000
  0.085467  0.049344  0.000000      6.000000
  0.099712  0.057569  0.000000      6.000000
  0.113956  0.065793  0.000000      6.000000
  0.128201  0.074017  0.000000      6.000000
  0.142445  0.082241  0.000000      3.000000
  0.014245  0.024672  0.000000      6.000000
  0.028489  0.032896  0.000000     12.000000
  0.042734  0.041120  0.000000     12.000000
  0.056978  0.049344  0.000000     12.000000
  0.071223  0.057569  0.000000     12.000000
  0.085467  0.065793  0.000000     12.000000
  0.099712  0.074017  0.000000     12.000000
  0.113956  0.082241  0.000000     12.000000
  0.128201  0.090465  0.000000     12.000000
  0.028489  0.049344  0.000000      6.000000
  0.042734  0.057569  0.000000     12.000000
  0.056978  0.065793  0.000000     12.000000
  0.071223  0.074017  0.000000     12.000000
  0.085467  0.082241  0.000000     12.000000
  0.099712  0.090465  0.000000     12.000000
  0.113956  0.098689  0.000000     12.000000
  0.128201  0.106913  0.000000      6.000000
  0.042734  0.074017  0.000000      6.000000
  0.056978  0.082241  0.000000     12.000000
  0.071223  0.090465  0.000000     12.000000
  0.085467  0.098689  0.000000     12.000000
  0.099712  0.106913  0.000000     12.000000
  0.113956  0.115137  0.000000     12.000000
  0.056978  0.098689  0.000000      6.000000
  0.071223  0.106913  0.000000     12.000000
  0.085467  0.115137  0.000000     12.000000
  0.099712  0.123361  0.000000     12.000000
  0.113956  0.131585  0.000000      6.000000
  0.071223  0.123361  0.000000      6.000000
  0.085467  0.131585  0.000000     12.000000
  0.099712  0.139809  0.000000     12.000000
  0.085467  0.148033  0.000000      6.000000
  0.099712  0.156258  0.000000      6.000000
 


--------------------------------------------------------------------------------------------------------




 Dimension of arrays:
   k-points           NKPTS =     44   k-points in BZ     NKDIM =     44   number of bands    NBANDS=     28
   number of dos      NEDOS =   5000   number of ions     NIONS =      6
   non local maximal  LDIM  =      6   non local SUM 2l+1 LMDIM =     18
   total plane-waves  NPLWV = 194400
   max r-space proj   IRMAX =      1   max aug-charges    IRDMAX=  31455
   dimension x,y,z NGX =    30 NGY =   30 NGZ =  216
   dimension x,y,z NGXF=    60 NGYF=   60 NGZF=  432
   support grid    NGXF=    60 NGYF=   60 NGZF=  432
   ions per type =               2   2   2
 NGX,Y,Z   is equivalent  to a cutoff of  14.21, 14.21, 13.95 a.u.
 NGXF,Y,Z  is equivalent  to a cutoff of  28.42, 28.42, 27.90 a.u.


 I would recommend the setting:
   dimension x,y,z NGX =    29 NGY =   29 NGZ =  214
 SYSTEM =  unknown system                          
 POSCAR =  Surf-mp-24081                           

 Startparameter for this run:
   NWRITE =      2    write-flag & timer
   PREC   = accura    normal or accurate (medium, high low for compatibility)
   ISTART =      0    job   : 0-new  1-cont  2-samecut
   ICHARG =      2    charge: 1-file 2-atom 10-const
   ISPIN  =      2    spin polarized calculation?
   LNONCOLLINEAR =      F non collinear calculations
   LSORBIT =      F    spin-orbit coupling
   INIWAV =      1    electr: 0-lowe 1-rand  2-diag
   LASPH  =      F    aspherical Exc in radial PAW
   METAGGA=      F    non-selfconsistent MetaGGA calc.

 Electronic Relaxation 1
   ENCUT  =  650.0 eV  47.77 Ry    6.91 a.u.   7.30  7.30 53.51*2*pi/ulx,y,z
   ENINI  =  650.0     initial cutoff
   ENAUG  =  443.1 eV  augmentation charge cutoff
   NELM   =    500;   NELMIN=  2; NELMDL= -5     # of ELM steps 
   EDIFF  = 0.1E-06   stopping-criterion for ELM
   LREAL  =      F    real-space projection
   NLSPLINE    = F    spline interpolate recip. space projectors
   LCOMPAT=      F    compatible to vasp.4.4
   GGA_COMPAT  = T    GGA compatible to vasp.4.4-vasp.4.6
   LMAXPAW     = -100 max onsite density
   LMAXMIX     =    2 max onsite mixed and CHGCAR
   VOSKOWN=      0    Vosko Wilk Nusair interpolation
   ROPT   =    0.00000   0.00000   0.00000
 Ionic relaxation
   EDIFFG = -.1E-02   stopping-criterion for IOM
   NSW    =    500    number of steps for IOM
   NBLOCK =      1;   KBLOCK =    500    inner block; outer block 
   IBRION =      2    ionic relax: 0-MD 1-quasi-New 2-CG
   NFREE  =      1    steps in history (QN), initial steepest desc. (CG)
   ISIF   =      3    stress and relaxation
   IWAVPR =     11    prediction:  0-non 1-charg 2-wave 3-comb
   ISYM   =      2    0-nonsym 1-usesym 2-fastsym
   LCORR  =      T    Harris-Foulkes like correction to forces

   POTIM  = 0.5000    time-step for ionic-motion
   TEIN   =    0.0    initial temperature
   TEBEG  =    0.0;   TEEND  =   0.0 temperature during run
   SMASS  =  -3.00    Nose mass-parameter (am)
   estimated Nose-frequenzy (Omega)   =  0.10E-29 period in steps =****** mass=  -0.282E-27a.u.
   SCALEE = 1.0000    scale energy and forces
   NPACO  =    256;   APACO  = 16.0  distance and # of slots for P.C.
   PSTRESS=    0.0 pullay stress

  Mass of Ions in am
   POMASS =  44.96  1.00 35.45
  Ionic Valenz
   ZVAL   =  11.00  1.00  7.00
  Atomic Wigner-Seitz radii
   RWIGS  =  -1.00 -1.00 -1.00
  virtual crystal weights 
   VCA    =   1.00  1.00  1.00
   NELECT =      38.0000    total number of electrons
   NUPDOWN=      -1.0000    fix difference up-down

 DOS related values:
   EMIN   =  10.00;   EMAX   =-10.00  energy-range for DOS
   EFERMI =   0.00
   ISMEAR =     0;   SIGMA  =   0.20  broadening in eV -4-tet -1-fermi 0-gaus

 Electronic relaxation 2 (details)
   IALGO  =     38    algorithm
   LDIAG  =      T    sub-space diagonalisation (order eigenvalues)
   LSUBROT=      F    optimize rotation matrix (better conditioning)
   TURBO    =      0    0=normal 1=particle mesh
   IRESTART =      0    0=no restart 2=restart with 2 vectors
   NREBOOT  =      0    no. of reboots
   NMIN     =      0    reboot dimension
   EREF     =   0.00    reference energy to select bands
   IMIX   =      4    mixing-type and parameters
     AMIX     =   0.40;   BMIX     =  1.00
     AMIX_MAG =   1.60;   BMIX_MAG =  1.00
     AMIN     =   0.10
     WC   =   100.;   INIMIX=   1;  MIXPRE=   1;  MAXMIX= -45

 Intra band minimization:
   WEIMIN = 0.0010     energy-eigenvalue tresh-hold
   EBREAK =  0.89E-09  absolut break condition
   DEPER  =   0.30     relativ break condition  

   TIME   =   0.40     timestep for ELM

  volume/ion in A,a.u.               =      45.78       308.95
  Fermi-wavevector in a.u.,A,eV,Ry     =   0.846689  1.600010  9.753769  0.716882
  Thomas-Fermi vector in A             =   1.962076
 
 Write flags
   LWAVE  =      F    write WAVECAR
   LCHARG =      F    write CHGCAR
   LVTOT  =      F    write LOCPOT, total local potential
   LVHAR  =      T    write LOCPOT, Hartree potential only
   LELF   =      F    write electronic localiz. function (ELF)
   LORBIT =     11    0 simple, 1 ext, 2 COOP (PROOUT)


 Dipole corrections
   LMONO  =      F    monopole corrections only (constant potential shift)
   LDIPOL =      F    correct potential (dipole corrections)
   IDIPOL =      0    1-x, 2-y, 3-z, 4-all directions 
   EPSILON=  1.0000000 bulk dielectric constant

 Exchange correlation treatment:
   GGA     =    BO    GGA type
   LEXCH   =    42    internal setting for exchange type
   VOSKOWN=      0    Vosko Wilk Nusair interpolation
   LHFCALC =     F    Hartree Fock is set to
   LHFONE  =     F    Hartree Fock one center treatment
   AEXX    =    0.0000 exact exchange contribution

 vdW DFT:
   LUSE_VDW   =     T    switch on vdW DFT
   Zab_VDW    =-.8491    correlation parameter
   PARAM1     =0.1833
   PARAM2     =0.2200
   PARAM3     =0.0000

 Linear response parameters
   LEPSILON=     F    determine dielectric tensor
   LRPA    =     F    only Hartree local field effects (RPA)
   LNABLA  =     F    use nabla operator in PAW spheres
   LVEL    =     F    velocity operator in full k-point grid
   LINTERFAST=   F  fast interpolation
   KINTER  =     0    interpolate to denser k-point grid
   CSHIFT  =0.1000    complex shift for real part using Kramers Kronig
   OMEGAMAX=  -1.0    maximum frequency
   DEG_THRESHOLD= 0.2000000E-02 threshold for treating states as degnerate
   RTIME   =    0.100 relaxation time in fs

 Orbital magnetization related:
   ORBITALMAG=     F  switch on orbital magnetization
   LCHIMAG   =     F  perturbation theory with respect to B field
   DQ        =  0.001000  dq finite difference perturbation B field



--------------------------------------------------------------------------------------------------------


 conjugate gradient relaxation of ions
 charge density and potential will be updated during run
 spin polarized calculation
 Variant of blocked Davidson
 Davidson routine will perform the subspace rotation
 perform sub-space diagonalisation
    after iterative eigenvector-optimisation
 modified Broyden-mixing scheme, WC =      100.0
 initial mixing is a Kerker type mixing with AMIX =  0.4000 and BMIX =      1.0000
 Hartree-type preconditioning will be used
 using additional bands            9
 reciprocal scheme for non local part
 use partial core corrections
 calculate Harris-corrections to forces 
   (improved forces if not selfconsistent)
 use gradient corrections 
 use of overlap-Matrix (Vanderbilt PP)
 Gauss-broadening in eV      SIGMA  =   0.20


--------------------------------------------------------------------------------------------------------


  energy-cutoff  :      650.00
  volume of cell :      274.69
      direct lattice vectors                 reciprocal lattice vectors
     3.510121000  0.000000000  0.000000000     0.284890464  0.164481631  0.000000000
    -1.755061000  3.039854000  0.000000000     0.000000000  0.328963167  0.000000000
     0.000000000  0.000000000 25.743165000     0.000000000  0.000000000  0.038845262

  length of vectors
     3.510121000  3.510121288 25.743165000     0.328963194  0.328963167  0.038845262


 
 k-points in units of 2pi/SCALE and weight: Automatic kpoint scheme                 
   0.00000000  0.00000000  0.00000000       0.003
   0.01424452  0.00822408  0.00000000       0.015
   0.02848905  0.01644816  0.00000000       0.015
   0.04273357  0.02467224  0.00000000       0.015
   0.05697809  0.03289633  0.00000000       0.015
   0.07122262  0.04112041  0.00000000       0.015
   0.08546714  0.04934449  0.00000000       0.015
   0.09971166  0.05756857  0.00000000       0.015
   0.11395619  0.06579265  0.00000000       0.015
   0.12820071  0.07401673  0.00000000       0.015
   0.14244523  0.08224082  0.00000000       0.007
   0.01424452  0.02467224  0.00000000       0.015
   0.02848905  0.03289632  0.00000000       0.030
   0.04273357  0.04112040  0.00000000       0.030
   0.05697809  0.04934448  0.00000000       0.030
   0.07122262  0.05756857  0.00000000       0.030
   0.08546714  0.06579265  0.00000000       0.030
   0.09971166  0.07401673  0.00000000       0.030
   0.11395619  0.08224081  0.00000000       0.030
   0.12820071  0.09046489  0.00000000       0.030
   0.02848905  0.04934448  0.00000000       0.015
   0.04273357  0.05756856  0.00000000       0.030
   0.05697809  0.06579264  0.00000000       0.030
   0.07122262  0.07401672  0.00000000       0.030
   0.08546714  0.08224081  0.00000000       0.030
   0.09971166  0.09046489  0.00000000       0.030
   0.11395619  0.09868897  0.00000000       0.030
   0.12820071  0.10691305  0.00000000       0.015
   0.04273357  0.07401672  0.00000000       0.015
   0.05697809  0.08224080  0.00000000       0.030
   0.07122262  0.09046488  0.00000000       0.030
   0.08546714  0.09868896  0.00000000       0.030
   0.09971166  0.10691305  0.00000000       0.030
   0.11395619  0.11513713  0.00000000       0.030
   0.05697809  0.09868896  0.00000000       0.015
   0.07122262  0.10691304  0.00000000       0.030
   0.08546714  0.11513712  0.00000000       0.030
   0.09971166  0.12336120  0.00000000       0.030
   0.11395619  0.13158529  0.00000000       0.015
   0.07122262  0.12336120  0.00000000       0.015
   0.08546714  0.13158528  0.00000000       0.030
   0.09971166  0.13980936  0.00000000       0.030
   0.08546714  0.14803344  0.00000000       0.015
   0.09971166  0.15625752  0.00000000       0.015
 
 k-points in reciprocal lattice and weights: Automatic kpoint scheme                 
   0.00000000  0.00000000  0.00000000       0.003
   0.05000000  0.00000000  0.00000000       0.015
   0.10000000  0.00000000  0.00000000       0.015
   0.15000000  0.00000000  0.00000000       0.015
   0.20000000 -0.00000000  0.00000000       0.015
   0.25000000  0.00000000  0.00000000       0.015
   0.30000000 -0.00000000  0.00000000       0.015
   0.35000000 -0.00000000  0.00000000       0.015
   0.40000000 -0.00000000  0.00000000       0.015
   0.45000000 -0.00000000  0.00000000       0.015
   0.50000000  0.00000000  0.00000000       0.007
   0.05000000  0.05000000  0.00000000       0.015
   0.10000000  0.05000000  0.00000000       0.030
   0.15000000  0.05000000  0.00000000       0.030
   0.20000000  0.05000000  0.00000000       0.030
   0.25000000  0.05000000  0.00000000       0.030
   0.30000000  0.05000000  0.00000000       0.030
   0.35000000  0.05000000  0.00000000       0.030
   0.40000000  0.05000000  0.00000000       0.030
   0.45000000  0.05000000  0.00000000       0.030
   0.10000000  0.10000000  0.00000000       0.015
   0.15000000  0.10000000  0.00000000       0.030
   0.20000000  0.10000000  0.00000000       0.030
   0.25000000  0.10000000  0.00000000       0.030
   0.30000000  0.10000000  0.00000000       0.030
   0.35000000  0.10000000  0.00000000       0.030
   0.40000000  0.10000000  0.00000000       0.030
   0.45000000  0.10000000  0.00000000       0.015
   0.15000000  0.15000000  0.00000000       0.015
   0.20000000  0.15000000  0.00000000       0.030
   0.25000000  0.15000000  0.00000000       0.030
   0.30000000  0.15000000  0.00000000       0.030
   0.35000000  0.15000000  0.00000000       0.030
   0.40000000  0.15000000  0.00000000       0.030
   0.20000000  0.20000000  0.00000000       0.015
   0.25000000  0.20000000  0.00000000       0.030
   0.30000000  0.20000000  0.00000000       0.030
   0.35000000  0.20000000  0.00000000       0.030
   0.40000000  0.20000000  0.00000000       0.015
   0.25000000  0.25000000  0.00000000       0.015
   0.30000000  0.25000000  0.00000000       0.030
   0.35000000  0.25000000  0.00000000       0.030
   0.30000000  0.30000000  0.00000000       0.015
   0.35000000  0.30000000  0.00000000       0.015
 
 position of ions in fractional coordinates (direct lattice) 
   0.66666700  0.33333300  0.45118600
   0.33333300  0.66666700  0.54881400
   0.66666700  0.33333300  0.52903700
   0.33333300  0.66666700  0.47096300
   0.00000000  0.00000000  0.38845300
   0.00000000  0.00000000  0.61154700
 
 position of ions in cartesian coordinates  (Angst):
   1.75506209  1.01328365 11.61495564
  -0.00000209  2.02657035 14.12820936
   1.75506209  1.01328365 13.61908678
  -0.00000209  2.02657035 12.12407822
   0.00000000  0.00000000 10.00000967
   0.00000000  0.00000000 15.74315533
 


--------------------------------------------------------------------------------------------------------


 k-point  1 :   0.0000 0.0000 0.0000  plane waves:   10397
 k-point  2 :   0.0500 0.0000 0.0000  plane waves:   10391
 k-point  3 :   0.1000 0.0000 0.0000  plane waves:   10367
 k-point  4 :   0.1500 0.0000 0.0000  plane waves:   10357
 k-point  5 :   0.2000-0.0000 0.0000  plane waves:   10359
 k-point  6 :   0.2500 0.0000 0.0000  plane waves:   10319
 k-point  7 :   0.3000-0.0000 0.0000  plane waves:   10311
 k-point  8 :   0.3500-0.0000 0.0000  plane waves:   10312
 k-point  9 :   0.4000-0.0000 0.0000  plane waves:   10316
 k-point 10 :   0.4500-0.0000 0.0000  plane waves:   10340
 k-point 11 :   0.5000 0.0000 0.0000  plane waves:   10344
 k-point 12 :   0.0500 0.0500 0.0000  plane waves:   10361
 k-point 13 :   0.1000 0.0500 0.0000  plane waves:   10358
 k-point 14 :   0.1500 0.0500 0.0000  plane waves:   10356
 k-point 15 :   0.2000 0.0500 0.0000  plane waves:   10338
 k-point 16 :   0.2500 0.0500 0.0000  plane waves:   10332
 k-point 17 :   0.3000 0.0500 0.0000  plane waves:   10317
 k-point 18 :   0.3500 0.0500 0.0000  plane waves:   10330
 k-point 19 :   0.4000 0.0500 0.0000  plane waves:   10328
 k-point 20 :   0.4500 0.0500 0.0000  plane waves:   10338
 k-point 21 :   0.1000 0.1000 0.0000  plane waves:   10369
 k-point 22 :   0.1500 0.1000 0.0000  plane waves:   10340
 k-point 23 :   0.2000 0.1000 0.0000  plane waves:   10333
 k-point 24 :   0.2500 0.1000 0.0000  plane waves:   10338
 k-point 25 :   0.3000 0.1000 0.0000  plane waves:   10330
 k-point 26 :   0.3500 0.1000 0.0000  plane waves:   10338
 k-point 27 :   0.4000 0.1000 0.0000  plane waves:   10343
 k-point 28 :   0.4500 0.1000 0.0000  plane waves:   10348
 k-point 29 :   0.1500 0.1500 0.0000  plane waves:   10313
 k-point 30 :   0.2000 0.1500 0.0000  plane waves:   10345
 k-point 31 :   0.2500 0.1500 0.0000  plane waves:   10326
 k-point 32 :   0.3000 0.1500 0.0000  plane waves:   10323
 k-point 33 :   0.3500 0.1500 0.0000  plane waves:   10340
 k-point 34 :   0.4000 0.1500 0.0000  plane waves:   10346
 k-point 35 :   0.2000 0.2000 0.0000  plane waves:   10343
 k-point 36 :   0.2500 0.2000 0.0000  plane waves:   10324
 k-point 37 :   0.3000 0.2000 0.0000  plane waves:   10323
 k-point 38 :   0.3500 0.2000 0.0000  plane waves:   10339
 k-point 39 :   0.4000 0.2000 0.0000  plane waves:   10332
 k-point 40 :   0.2500 0.2500 0.0000  plane waves:   10311
 k-point 41 :   0.3000 0.2500 0.0000  plane waves:   10328
 k-point 42 :   0.3500 0.2500 0.0000  plane waves:   10330
 k-point 43 :   0.3000 0.3000 0.0000  plane waves:   10317
 k-point 44 :   0.3500 0.3000 0.0000  plane waves:   10313

 maximum and minimum number of plane-waves per node :      1753     1705

 maximum number of plane-waves:     10397
 maximum index in each direction: 
   IXMAX=    7   IYMAX=    7   IZMAX=   53
   IXMIN=   -7   IYMIN=   -7   IZMIN=  -53

 NGX is ok and might be reduce to  30
 NGY is ok and might be reduce to  30
 NGZ is ok and might be reduce to 214

 parallel 3D FFT for wavefunctions:
    minimum data exchange during FFTs selected (reduces bandwidth)
 parallel 3D FFT for charge:
    minimum data exchange during FFTs selected (reduces bandwidth)


 total amount of memory used by VASP on root node    94047. kBytes
========================================================================

   base      :      30000. kBytes
   nonl-proj :      33546. kBytes
   fftplans  :       3501. kBytes
   grid      :       9465. kBytes
   one-center:         31. kBytes
   wavefun   :      17504. kBytes
 
     INWAV:  cpu time    0.0001: real time    0.0001
 Broyden mixing: mesh for mixing (old mesh)
   NGX = 15   NGY = 15   NGZ =107
  (NGX  = 60   NGY  = 60   NGZ  =432)
  gives a total of  24075 points

 initial charge density was supplied:
 charge density of overlapping atoms calculated
 number of electron      38.0000000 magnetization       6.0000000
 keeping initial charge density in first step


--------------------------------------------------------------------------------------------------------


 Maximum index for augmentation-charges         1523 (set IRDMAX)


--------------------------------------------------------------------------------------------------------


 First call to EWALD:  gamma=   0.273
 Maximum number of real-space cells 5x 5x 1
 Maximum number of reciprocal cells 2x 2x 9

 FEWALD executed in parallel
    FEWALD:  cpu time    0.0033: real time    0.0033


----------------------------------------- Iteration    1(   1)  ---------------------------------------


vdW kernel read from vdw_kernel.bindat
  0.0000  0.2424  0.5071  0.7962  1.1119  1.4567  1.8333  2.2446  2.6937  3.1842
  3.7199  4.3049  4.9438  5.6415  6.4036  7.2358  8.1446  9.1372 10.2212 11.4050
 12.6979 14.1099 15.6519 17.3360 19.1751 21.1837 23.3773 25.7729 28.3892 31.2465
 34.3669 37.7748 41.4965 45.5611 50.0000
 
    POTLOK:  cpu time    6.3593: real time    6.3636
    SETDIJ:  cpu time    0.0215: real time    0.0215
     EDDAV:  cpu time   10.5470: real time   10.5478
       DOS:  cpu time    0.0202: real time    0.0202
    --------------------------------------------
      LOOP:  cpu time   16.9533: real time   16.9787

 eigenvalue-minimisations  :  5296
 total energy-change (2. order) : 0.6228913E+03  (-0.1719763E+04)
 number of electron      38.0000000 magnetization       6.0000000
 augmentation part       38.0000000 magnetization       6.0000000

 Free energy of the ion-electron system (eV)
  ---------------------------------------------------
  alpha Z        PSCENC =        46.40624597
  Ewald energy   TEWEN  =     11447.81749835
  -Hartree energ DENC   =    -14326.29188450
  -exchange      EXHF   =         0.00000000
  -V(xc)+E(xc)   XCENC  =       149.49132002
  PAW double counting   =      2707.12731744    -2696.57134910
  entropy T*S    EENTRO =        -0.03520493
  eigenvalues    EBANDS =      -112.79811151
  atomic energy  EATOM  =      3407.74547440
  Solvation  Ediel_sol  =         0.00000000
  ---------------------------------------------------
  free energy    TOTEN  =       622.89130614 eV

  energy without entropy =      622.92651108  energy(sigma->0) =      622.90890861


--------------------------------------------------------------------------------------------------------




----------------------------------------- Iteration    1(   2)  ---------------------------------------


     EDDAV:  cpu time   12.4965: real time   12.5092
       DOS:  cpu time    0.0210: real time    0.0210
    --------------------------------------------
      LOOP:  cpu time   12.5202: real time   14.6008

 eigenvalue-minimisations  :  6680
 total energy-change (2. order) :-0.5613164E+03  (-0.5472524E+03)
 number of electron      38.0000000 magnetization       6.0000000
 augmentation part       38.0000000 magnetization       6.0000000

 Free energy of the ion-electron system (eV)
  ---------------------------------------------------
  alpha Z        PSCENC =        46.40624597
  Ewald energy   TEWEN  =     11447.81749835
  -Hartree energ DENC   =    -14326.29188450
  -exchange      EXHF   =         0.00000000
  -V(xc)+E(xc)   XCENC  =       149.49132002
  PAW double counting   =      2707.12731744    -2696.57134910
  entropy T*S    EENTRO =        -0.04713659
  eigenvalues    EBANDS =      -674.10262016
  atomic energy  EATOM  =      3407.74547440
  Solvation  Ediel_sol  =         0.00000000
  ---------------------------------------------------
  free energy    TOTEN  =        61.57486584 eV

  energy without entropy =       61.62200243  energy(sigma->0) =       61.59843413


--------------------------------------------------------------------------------------------------------




----------------------------------------- Iteration    1(   3)  ---------------------------------------


     EDDAV:  cpu time   14.9264: real time   14.9374
       DOS:  cpu time    0.0222: real time    0.0222
    --------------------------------------------
      LOOP:  cpu time   14.9508: real time   14.9930

 eigenvalue-minimisations  :  8368
 total energy-change (2. order) :-0.7923462E+02  (-0.7636578E+02)
 number of electron      38.0000000 magnetization       6.0000000
 augmentation part       38.0000000 magnetization       6.0000000

 Free energy of the ion-electron system (eV)
  ---------------------------------------------------
  alpha Z        PSCENC =        46.40624597
  Ewald energy   TEWEN  =     11447.81749835
  -Hartree energ DENC   =    -14326.29188450
  -exchange      EXHF   =         0.00000000
  -V(xc)+E(xc)   XCENC  =       149.49132002
  PAW double counting   =      2707.12731744    -2696.57134910
  entropy T*S    EENTRO =        -0.02375197
  eigenvalues    EBANDS =      -753.36062181
  atomic energy  EATOM  =      3407.74547440
  Solvation  Ediel_sol  =         0.00000000
  ---------------------------------------------------
  free energy    TOTEN  =       -17.65975119 eV

  energy without entropy =      -17.63599923  energy(sigma->0) =      -17.64787521


--------------------------------------------------------------------------------------------------------




----------------------------------------- Iteration    1(   4)  ---------------------------------------


     EDDAV:  cpu time   15.1298: real time   15.1392
       DOS:  cpu time    0.0218: real time    0.0225
    --------------------------------------------
      LOOP:  cpu time   15.1548: real time   15.7683

 eigenvalue-minimisations  :  7344
 total energy-change (2. order) :-0.4465336E+01  (-0.4439032E+01)
 number of electron      38.0000000 magnetization       6.0000000
 augmentation part       38.0000000 magnetization       6.0000000

 Free energy of the ion-electron system (eV)
  ---------------------------------------------------
  alpha Z        PSCENC =        46.40624597
  Ewald energy   TEWEN  =     11447.81749835
  -Hartree energ DENC   =    -14326.29188450
  -exchange      EXHF   =         0.00000000
  -V(xc)+E(xc)   XCENC  =       149.49132002
  PAW double counting   =      2707.12731744    -2696.57134910
  entropy T*S    EENTRO =        -0.02499479
  eigenvalues    EBANDS =      -757.82471516
  atomic energy  EATOM  =      3407.74547440
  Solvation  Ediel_sol  =         0.00000000
  ---------------------------------------------------
  free energy    TOTEN  =       -22.12508737 eV

  energy without entropy =      -22.10009258  energy(sigma->0) =      -22.11258997


--------------------------------------------------------------------------------------------------------




----------------------------------------- Iteration    1(   5)  ---------------------------------------


     EDDAV:  cpu time   15.1508: real time   15.1560
       DOS:  cpu time    0.0227: real time    0.0227
    CHARGE:  cpu time    0.6787: real time    0.6788
    MIXING:  cpu time    0.0062: real time    0.0062
    --------------------------------------------
      LOOP:  cpu time   15.8628: real time   15.9303

 eigenvalue-minimisations  :  8376
 total energy-change (2. order) :-0.1340119E+00  (-0.1336634E+00)
 number of electron      38.0000007 magnetization       5.4799179
 augmentation part        3.7782591 magnetization       5.2958469

 Broyden mixing:
  rms(total) = 0.17429E+01    rms(broyden)= 0.17429E+01
  rms(prec ) = 0.17739E+01
  weight for this iteration     100.00

 Free energy of the ion-electron system (eV)
  ---------------------------------------------------
  alpha Z        PSCENC =        46.40624597
  Ewald energy   TEWEN  =     11447.81749835
  -Hartree energ DENC   =    -14326.29188450
  -exchange      EXHF   =         0.00000000
  -V(xc)+E(xc)   XCENC  =       149.49132002
  PAW double counting   =      2707.12731744    -2696.57134910
  entropy T*S    EENTRO =        -0.02498165
  eigenvalues    EBANDS =      -757.95874019
  atomic energy  EATOM  =      3407.74547440
  Solvation  Ediel_sol  =         0.00000000
  ---------------------------------------------------
  free energy    TOTEN  =       -22.25909925 eV

  energy without entropy =      -22.23411760  energy(sigma->0) =      -22.24660843


--------------------------------------------------------------------------------------------------------




----------------------------------------- Iteration    1(   6)  ---------------------------------------


    POTLOK:  cpu time    5.6869: real time    5.6968
    SETDIJ:  cpu time    0.0211: real time    0.0211
     EDDAV:  cpu time   13.3292: real time   13.3454
       DOS:  cpu time    0.0225: real time    0.0224
    CHARGE:  cpu time    0.6829: real time    0.6960
    MIXING:  cpu time    0.0058: real time    0.0163
    --------------------------------------------
      LOOP:  cpu time   19.7508: real time   20.7839

 eigenvalue-minimisations  :  7164
 total energy-change (2. order) : 0.1682136E+01  (-0.1363470E+01)
 number of electron      38.0000007 magnetization       4.9982901
 augmentation part        4.2527907 magnetization       4.5439218

 Broyden mixing:
  rms(total) = 0.86746E+00    rms(broyden)= 0.86746E+00
  rms(prec ) = 0.87958E+00
  weight for this iteration     100.00

 eigenvalues of (default mixing * dielectric matrix)
  average eigenvalue GAMMA=   0.8476
  0.8476

 Free energy of the ion-electron system (eV)
  ---------------------------------------------------
  alpha Z        PSCENC =        46.40624597
  Ewald energy   TEWEN  =     11447.81749835
  -Hartree energ DENC   =    -14301.99379161
  -exchange      EXHF   =         0.00000000
  -V(xc)+E(xc)   XCENC  =       148.74494820
  PAW double counting   =      3015.88863205    -3007.77988297
  entropy T*S    EENTRO =        -0.03877881
  eigenvalues    EBANDS =      -777.36730841
  atomic energy  EATOM  =      3407.74547440
  Solvation  Ediel_sol  =         0.00000000
  ---------------------------------------------------
  free energy    TOTEN  =       -20.57696284 eV

  energy without entropy =      -20.53818402  energy(sigma->0) =      -20.55757343


--------------------------------------------------------------------------------------------------------




----------------------------------------- Iteration    1(   7)  ---------------------------------------


    POTLOK:  cpu time    5.7048: real time    5.7073
    SETDIJ:  cpu time    0.0218: real time    0.0218
     EDDAV:  cpu time   13.4329: real time   13.4569
       DOS:  cpu time    0.0224: real time    0.0224
    CHARGE:  cpu time    0.6919: real time    0.6921
    MIXING:  cpu time    0.0060: real time    0.0061
    --------------------------------------------
      LOOP:  cpu time   19.8845: real time   19.9514

 eigenvalue-minimisations  :  7172
 total energy-change (2. order) :-0.3570783E+00  (-0.1623325E+00)
 number of electron      38.0000007 magnetization       4.5380411
 augmentation part        4.3857471 magnetization       4.1800859

 Broyden mixing:
  rms(total) = 0.61401E+00    rms(broyden)= 0.61401E+00
  rms(prec ) = 0.61749E+00
  weight for this iteration     100.00

 eigenvalues of (default mixing * dielectric matrix)
  average eigenvalue GAMMA=   0.9332
  1.2156  0.6509

 Free energy of the ion-electron system (eV)
  ---------------------------------------------------
  alpha Z        PSCENC =        46.40624597
  Ewald energy   TEWEN  =     11447.81749835
  -Hartree energ DENC   =    -14303.20601139
  -exchange      EXHF   =         0.00000000
  -V(xc)+E(xc)   XCENC  =       148.21675221
  PAW double counting   =      3210.16325023    -3203.15358874
  entropy T*S    EENTRO =        -0.03707705
  eigenvalues    EBANDS =      -774.88658515
  atomic energy  EATOM  =      3407.74547440
  Solvation  Ediel_sol  =         0.00000000
  ---------------------------------------------------
  free energy    TOTEN  =       -20.93404117 eV

  energy without entropy =      -20.89696412  energy(sigma->0) =      -20.91550265


--------------------------------------------------------------------------------------------------------




----------------------------------------- Iteration    1(   8)  ---------------------------------------


    POTLOK:  cpu time    5.7093: real time    5.7098
    SETDIJ:  cpu time    0.0222: real time    0.0222
     EDDAV:  cpu time   12.7672: real time   12.7696
       DOS:  cpu time    0.0226: real time    0.0226
    CHARGE:  cpu time    0.7132: real time    0.7132
    MIXING:  cpu time    0.0059: real time    0.0059
    --------------------------------------------
      LOOP:  cpu time   19.2442: real time   19.2655

 eigenvalue-minimisations  :  6716
 total energy-change (2. order) :-0.2090023E+00  (-0.3627361E-01)
 number of electron      38.0000007 magnetization       3.9136872
 augmentation part        4.4047206 magnetization       3.5834628

 Broyden mixing:
  rms(total) = 0.43903E+00    rms(broyden)= 0.43903E+00
  rms(prec ) = 0.43997E+00
  weight for this iteration     100.00

 eigenvalues of (default mixing * dielectric matrix)
  average eigenvalue GAMMA=   1.1059
  1.8091  0.8463  0.6622

 Free energy of the ion-electron system (eV)
  ---------------------------------------------------
  alpha Z        PSCENC =        46.40624597
  Ewald energy   TEWEN  =     11447.81749835
  -Hartree energ DENC   =    -14308.54383228
  -exchange      EXHF   =         0.00000000
  -V(xc)+E(xc)   XCENC  =       148.21457566
  PAW double counting   =      3345.97854254    -3339.52238798
  entropy T*S    EENTRO =        -0.03410009
  eigenvalues    EBANDS =      -769.20506001
  atomic energy  EATOM  =      3407.74547440
  Solvation  Ediel_sol  =         0.00000000
  ---------------------------------------------------
  free energy    TOTEN  =       -21.14304345 eV

  energy without entropy =      -21.10894336  energy(sigma->0) =      -21.12599341


--------------------------------------------------------------------------------------------------------




----------------------------------------- Iteration    1(   9)  ---------------------------------------


    POTLOK:  cpu time    5.6965: real time    5.7156
    SETDIJ:  cpu time    0.0217: real time    0.0217
     EDDAV:  cpu time   12.4994: real time   12.5061
       DOS:  cpu time    0.0225: real time    0.0225
    CHARGE:  cpu time    0.7121: real time    0.7122
    MIXING:  cpu time    0.0060: real time    0.0060
    --------------------------------------------
      LOOP:  cpu time   18.9613: real time   19.0297

 eigenvalue-minimisations  :  6592
 total energy-change (2. order) :-0.2922369E+00  (-0.1551743E-01)
 number of electron      38.0000007 magnetization       3.1918386
 augmentation part        4.3816523 magnetization       2.9362785

 Broyden mixing:
  rms(total) = 0.34861E+00    rms(broyden)= 0.34861E+00
  rms(prec ) = 0.34893E+00
  weight for this iteration     100.00

 eigenvalues of (default mixing * dielectric matrix)
  average eigenvalue GAMMA=   1.2788
  2.5332  1.1664  0.7911  0.6244

 Free energy of the ion-electron system (eV)
  ---------------------------------------------------
  alpha Z        PSCENC =        46.40624597
  Ewald energy   TEWEN  =     11447.81749835
  -Hartree energ DENC   =    -14315.74924472
  -exchange      EXHF   =         0.00000000
  -V(xc)+E(xc)   XCENC  =       148.24726354
  PAW double counting   =      3466.87471085    -3460.79653953
  entropy T*S    EENTRO =        -0.02833483
  eigenvalues    EBANDS =      -761.95235440
  atomic energy  EATOM  =      3407.74547440
  Solvation  Ediel_sol  =         0.00000000
  ---------------------------------------------------
  free energy    TOTEN  =       -21.43528038 eV

  energy without entropy =      -21.40694555  energy(sigma->0) =      -21.42111296


--------------------------------------------------------------------------------------------------------




----------------------------------------- Iteration    1(  10)  ---------------------------------------


    POTLOK:  cpu time    5.7198: real time    5.7348
    SETDIJ:  cpu time    0.0217: real time    0.0217
     EDDAV:  cpu time   12.8020: real time   12.8035
       DOS:  cpu time    0.0227: real time    0.0227
    CHARGE:  cpu time    0.7209: real time    0.7219
    MIXING:  cpu time    0.0055: real time    0.0063
    --------------------------------------------
      LOOP:  cpu time   19.2992: real time   19.3499

 eigenvalue-minimisations  :  6608
 total energy-change (2. order) :-0.4132957E+00  (-0.1493770E-01)
 number of electron      38.0000007 magnetization       1.8363757
 augmentation part        4.3720201 magnetization       1.6590715

 Broyden mixing:
  rms(total) = 0.27981E+00    rms(broyden)= 0.27981E+00
  rms(prec ) = 0.28005E+00
  weight for this iteration     100.00

 eigenvalues of (default mixing * dielectric matrix)
  average eigenvalue GAMMA=   1.4515
  3.2884  1.5398  1.0203  0.7795  0.6295

 Free energy of the ion-electron system (eV)
  ---------------------------------------------------
  alpha Z        PSCENC =        46.40624597
  Ewald energy   TEWEN  =     11447.81749835
  -Hartree energ DENC   =    -14321.31356100
  -exchange      EXHF   =         0.00000000
  -V(xc)+E(xc)   XCENC  =       148.19235682
  PAW double counting   =      3529.12720622    -3523.21362991
  entropy T*S    EENTRO =        -0.02389813
  eigenvalues    EBANDS =      -756.58626878
  atomic energy  EATOM  =      3407.74547440
  Solvation  Ediel_sol  =         0.00000000
  ---------------------------------------------------
  free energy    TOTEN  =       -21.84857606 eV

  energy without entropy =      -21.82467793  energy(sigma->0) =      -21.83662699


--------------------------------------------------------------------------------------------------------




----------------------------------------- Iteration    1(  11)  ---------------------------------------


    POTLOK:  cpu time    5.7074: real time    5.7095
    SETDIJ:  cpu time    0.0211: real time    0.0211
     EDDAV:  cpu time   11.6483: real time   11.6568
       DOS:  cpu time    0.0226: real time    0.0226
    CHARGE:  cpu time    0.7264: real time    0.7267
    MIXING:  cpu time    0.0058: real time    0.0067
    --------------------------------------------
      LOOP:  cpu time   18.1355: real time   18.1884

 eigenvalue-minimisations  :  5968
 total energy-change (2. order) :-0.4198040E+00  (-0.2219433E-01)
 number of electron      38.0000007 magnetization       0.8375996
 augmentation part        4.3798468 magnetization       0.7434666

 Broyden mixing:
  rms(total) = 0.16520E+00    rms(broyden)= 0.16520E+00
  rms(prec ) = 0.16541E+00
  weight for this iteration     100.00

 eigenvalues of (default mixing * dielectric matrix)
  average eigenvalue GAMMA=   1.8980
  5.8757  2.1642  1.1198  0.8760  0.7209  0.6313

 Free energy of the ion-electron system (eV)
  ---------------------------------------------------
  alpha Z        PSCENC =        46.40624597
  Ewald energy   TEWEN  =     11447.81749835
  -Hartree energ DENC   =    -14327.03290309
  -exchange      EXHF   =         0.00000000
  -V(xc)+E(xc)   XCENC  =       147.93689852
  PAW double counting   =      3535.23588439    -3529.32446004
  entropy T*S    EENTRO =        -0.02063394
  eigenvalues    EBANDS =      -751.03238460
  atomic energy  EATOM  =      3407.74547440
  Solvation  Ediel_sol  =         0.00000000
  ---------------------------------------------------
  free energy    TOTEN  =       -22.26838004 eV

  energy without entropy =      -22.24774610  energy(sigma->0) =      -22.25806307


--------------------------------------------------------------------------------------------------------




----------------------------------------- Iteration    1(  12)  ---------------------------------------


    POTLOK:  cpu time    5.7597: real time    5.7611
    SETDIJ:  cpu time    0.0213: real time    0.0213
     EDDAV:  cpu time   12.6694: real time   12.6758
       DOS:  cpu time    0.0226: real time    0.0226
    CHARGE:  cpu time    0.7306: real time    0.7308
    MIXING:  cpu time    0.0067: real time    0.0067
    --------------------------------------------
      LOOP:  cpu time   19.2145: real time   19.2662

 eigenvalue-minimisations  :  6584
 total energy-change (2. order) :-0.1763115E+00  (-0.8629553E-02)
 number of electron      38.0000007 magnetization       0.4446134
 augmentation part        4.3784946 magnetization       0.4148632

 Broyden mixing:
  rms(total) = 0.94509E-01    rms(broyden)= 0.94509E-01
  rms(prec ) = 0.95049E-01
  weight for this iteration     100.00

 eigenvalues of (default mixing * dielectric matrix)
  average eigenvalue GAMMA=   2.0943
  7.7610  2.3882  1.2114  1.2114  0.7983  0.6450  0.6450

 Free energy of the ion-electron system (eV)
  ---------------------------------------------------
  alpha Z        PSCENC =        46.40624597
  Ewald energy   TEWEN  =     11447.81749835
  -Hartree energ DENC   =    -14330.33742369
  -exchange      EXHF   =         0.00000000
  -V(xc)+E(xc)   XCENC  =       147.77232729
  PAW double counting   =      3505.55429423    -3499.54383213
  entropy T*S    EENTRO =        -0.02087475
  eigenvalues    EBANDS =      -747.83840122
  atomic energy  EATOM  =      3407.74547440
  Solvation  Ediel_sol  =         0.00000000
  ---------------------------------------------------
  free energy    TOTEN  =       -22.44469155 eV

  energy without entropy =      -22.42381680  energy(sigma->0) =      -22.43425418


--------------------------------------------------------------------------------------------------------




----------------------------------------- Iteration    1(  13)  ---------------------------------------


    POTLOK:  cpu time    5.8241: real time    5.8257
    SETDIJ:  cpu time    0.0209: real time    0.0209
     EDDAV:  cpu time   13.2624: real time   13.2693
       DOS:  cpu time    0.0227: real time    0.0227
    CHARGE:  cpu time    0.7463: real time    0.7473
    MIXING:  cpu time    0.0070: real time    0.0070
    --------------------------------------------
      LOOP:  cpu time   19.8867: real time   19.9387

 eigenvalue-minimisations  :  6976
 total energy-change (2. order) :-0.5191480E-01  (-0.2064790E-02)
 number of electron      38.0000007 magnetization       0.1869004
 augmentation part        4.3750720 magnetization       0.1770470

 Broyden mixing:
  rms(total) = 0.49076E-01    rms(broyden)= 0.49076E-01
  rms(prec ) = 0.49623E-01
  weight for this iteration     100.00

 eigenvalues of (default mixing * dielectric matrix)
  average eigenvalue GAMMA=   2.3314
  9.9059  2.8827  1.7767  1.0323  1.0323  0.7538  0.6337  0.6337

 Free energy of the ion-electron system (eV)
  ---------------------------------------------------
  alpha Z        PSCENC =        46.40624597
  Ewald energy   TEWEN  =     11447.81749835
  -Hartree energ DENC   =    -14330.39198753
  -exchange      EXHF   =         0.00000000
  -V(xc)+E(xc)   XCENC  =       147.70554896
  PAW double counting   =      3482.04602044    -3475.98182631
  entropy T*S    EENTRO =        -0.02109086
  eigenvalues    EBANDS =      -747.82248978
  atomic energy  EATOM  =      3407.74547440
  Solvation  Ediel_sol  =         0.00000000
  ---------------------------------------------------
  free energy    TOTEN  =       -22.49660635 eV

  energy without entropy =      -22.47551549  energy(sigma->0) =      -22.48606092


--------------------------------------------------------------------------------------------------------




----------------------------------------- Iteration    1(  14)  ---------------------------------------


    POTLOK:  cpu time    5.7311: real time    5.7321
    SETDIJ:  cpu time    0.0208: real time    0.0208
     EDDAV:  cpu time   13.1043: real time   13.1100
       DOS:  cpu time    0.0220: real time    0.0227
    CHARGE:  cpu time    0.7347: real time    0.7356
    MIXING:  cpu time    0.0072: real time    0.0072
    --------------------------------------------
      LOOP:  cpu time   19.6250: real time   19.7035

 eigenvalue-minimisations  :  6908
 total energy-change (2. order) :-0.2086327E-01  (-0.1002017E-02)
 number of electron      38.0000007 magnetization       0.1300103
 augmentation part        4.3789461 magnetization       0.1270293

 Broyden mixing:
  rms(total) = 0.19433E-01    rms(broyden)= 0.19433E-01
  rms(prec ) = 0.19919E-01
  weight for this iteration     100.00

 eigenvalues of (default mixing * dielectric matrix)
  average eigenvalue GAMMA=   2.3218
 11.0901  2.9314  1.8478  1.1032  1.1032  0.8512  0.7129  0.6281  0.6281

 Free energy of the ion-electron system (eV)
  ---------------------------------------------------
  alpha Z        PSCENC =        46.40624597
  Ewald energy   TEWEN  =     11447.81749835
  -Hartree energ DENC   =    -14329.32974839
  -exchange      EXHF   =         0.00000000
  -V(xc)+E(xc)   XCENC  =       147.68334423
  PAW double counting   =      3467.92772342    -3461.87366031
  entropy T*S    EENTRO =        -0.02108076
  eigenvalues    EBANDS =      -748.87326654
  atomic energy  EATOM  =      3407.74547440
  Solvation  Ediel_sol  =         0.00000000
  ---------------------------------------------------
  free energy    TOTEN  =       -22.51746962 eV

  energy without entropy =      -22.49638886  energy(sigma->0) =      -22.50692924


--------------------------------------------------------------------------------------------------------




----------------------------------------- Iteration    1(  15)  ---------------------------------------


    POTLOK:  cpu time    5.7233: real time    5.7238
    SETDIJ:  cpu time    0.0211: real time    0.0211
     EDDAV:  cpu time   12.9130: real time   12.9178
       DOS:  cpu time    0.0227: real time    0.0227
    CHARGE:  cpu time    0.7359: real time    0.7359
    MIXING:  cpu time    0.0079: real time    0.0079
    --------------------------------------------
      LOOP:  cpu time   19.4271: real time   19.4697

 eigenvalue-minimisations  :  6576
 total energy-change (2. order) :-0.1554782E-02  (-0.1368597E-03)
 number of electron      38.0000007 magnetization       0.1110676
 augmentation part        4.3781017 magnetization       0.1125137

 Broyden mixing:
  rms(total) = 0.13852E-01    rms(broyden)= 0.13852E-01
  rms(prec ) = 0.14192E-01
  weight for this iteration     100.00

 eigenvalues of (default mixing * dielectric matrix)
  average eigenvalue GAMMA=   2.1969
 11.1835  2.7284  1.9502  1.1902  1.0447  1.0447  0.8535  0.7192  0.6272  0.6272

 Free energy of the ion-electron system (eV)
  ---------------------------------------------------
  alpha Z        PSCENC =        46.40624597
  Ewald energy   TEWEN  =     11447.81749835
  -Hartree energ DENC   =    -14329.23645034
  -exchange      EXHF   =         0.00000000
  -V(xc)+E(xc)   XCENC  =       147.69766131
  PAW double counting   =      3472.22646317    -3466.19444270
  entropy T*S    EENTRO =        -0.02104146
  eigenvalues    EBANDS =      -748.96043312
  atomic energy  EATOM  =      3407.74547440
  Solvation  Ediel_sol  =         0.00000000
  ---------------------------------------------------
  free energy    TOTEN  =       -22.51902440 eV

  energy without entropy =      -22.49798295  energy(sigma->0) =      -22.50850368


--------------------------------------------------------------------------------------------------------




----------------------------------------- Iteration    1(  16)  ---------------------------------------


    POTLOK:  cpu time    5.7023: real time    5.7038
    SETDIJ:  cpu time    0.0210: real time    0.0210
     EDDAV:  cpu time   12.7758: real time   12.7861
       DOS:  cpu time    0.0232: real time    0.0232
    CHARGE:  cpu time    0.7303: real time    0.7306
    MIXING:  cpu time    0.0083: real time    0.0083
    --------------------------------------------
      LOOP:  cpu time   19.2644: real time   19.3259

 eigenvalue-minimisations  :  6328
 total energy-change (2. order) :-0.2785945E-02  (-0.5495705E-04)
 number of electron      38.0000007 magnetization       0.0809240
 augmentation part        4.3768507 magnetization       0.0827216

 Broyden mixing:
  rms(total) = 0.99234E-02    rms(broyden)= 0.99234E-02
  rms(prec ) = 0.10210E-01
  weight for this iteration     100.00

 eigenvalues of (default mixing * dielectric matrix)
  average eigenvalue GAMMA=   2.1887
 11.2753  2.6394  2.6394  1.3815  1.3815  1.0052  1.0052  0.7976  0.6941  0.6284
  0.6284

 Free energy of the ion-electron system (eV)
  ---------------------------------------------------
  alpha Z        PSCENC =        46.40624597
  Ewald energy   TEWEN  =     11447.81749835
  -Hartree energ DENC   =    -14328.91978635
  -exchange      EXHF   =         0.00000000
  -V(xc)+E(xc)   XCENC  =       147.70382663
  PAW double counting   =      3478.43868444    -3472.42188455
  entropy T*S    EENTRO =        -0.02101164
  eigenvalues    EBANDS =      -749.27085760
  atomic energy  EATOM  =      3407.74547440
  Solvation  Ediel_sol  =         0.00000000
  ---------------------------------------------------
  free energy    TOTEN  =       -22.52181035 eV

  energy without entropy =      -22.50079871  energy(sigma->0) =      -22.51130453


--------------------------------------------------------------------------------------------------------




----------------------------------------- Iteration    1(  17)  ---------------------------------------


    POTLOK:  cpu time    5.7227: real time    5.7231
    SETDIJ:  cpu time    0.0212: real time    0.0212
     EDDAV:  cpu time   12.1184: real time   12.2478
       DOS:  cpu time    0.0230: real time    0.0230
    CHARGE:  cpu time    0.7485: real time    0.7486
    MIXING:  cpu time    0.0078: real time    0.0078
    --------------------------------------------
      LOOP:  cpu time   18.6448: real time   18.8153

 eigenvalue-minimisations  :  5576
 total energy-change (2. order) :-0.4094674E-02  (-0.1370829E-03)
 number of electron      38.0000007 magnetization       0.0653536
 augmentation part        4.3765634 magnetization       0.0656171

 Broyden mixing:
  rms(total) = 0.66853E-02    rms(broyden)= 0.66853E-02
  rms(prec ) = 0.68366E-02
  weight for this iteration     100.00

 eigenvalues of (default mixing * dielectric matrix)
  average eigenvalue GAMMA=   2.1609
 11.3272  3.3931  2.4385  1.5636  1.5636  1.0395  1.0395  0.8680  0.7528  0.6956
  0.6248  0.6248

 Free energy of the ion-electron system (eV)
  ---------------------------------------------------
  alpha Z        PSCENC =        46.40624597
  Ewald energy   TEWEN  =     11447.81749835
  -Hartree energ DENC   =    -14327.97156749
  -exchange      EXHF   =         0.00000000
  -V(xc)+E(xc)   XCENC  =       147.69600952
  PAW double counting   =      3481.18550934    -3475.17327123
  entropy T*S    EENTRO =        -0.02098038
  eigenvalues    EBANDS =      -750.21082351
  atomic energy  EATOM  =      3407.74547440
  Solvation  Ediel_sol  =         0.00000000
  ---------------------------------------------------
  free energy    TOTEN  =       -22.52590502 eV

  energy without entropy =      -22.50492464  energy(sigma->0) =      -22.51541483


--------------------------------------------------------------------------------------------------------




----------------------------------------- Iteration    1(  18)  ---------------------------------------


    POTLOK:  cpu time    6.3785: real time    6.3788
    SETDIJ:  cpu time    0.0212: real time    0.0212
     EDDAV:  cpu time   12.3110: real time   12.3114
       DOS:  cpu time    0.0225: real time    0.0232
    CHARGE:  cpu time    0.7477: real time    0.7477
    MIXING:  cpu time    0.0084: real time    0.0084
    --------------------------------------------
      LOOP:  cpu time   19.4934: real time   19.7487

 eigenvalue-minimisations  :  6260
 total energy-change (2. order) :-0.5148862E-03  (-0.4326879E-04)
 number of electron      38.0000007 magnetization       0.0352685
 augmentation part        4.3765518 magnetization       0.0350508

 Broyden mixing:
  rms(total) = 0.52666E-02    rms(broyden)= 0.52666E-02
  rms(prec ) = 0.53416E-02
  weight for this iteration     100.00

 eigenvalues of (default mixing * dielectric matrix)
  average eigenvalue GAMMA=   2.1431
 11.3460  3.8553  2.4740  2.0381  1.3978  1.0743  1.0743  1.0473  0.8968  0.7130
  0.6933  0.6249  0.6249

 Free energy of the ion-electron system (eV)
  ---------------------------------------------------
  alpha Z        PSCENC =        46.40624597
  Ewald energy   TEWEN  =     11447.81749835
  -Hartree energ DENC   =    -14327.41761096
  -exchange      EXHF   =         0.00000000
  -V(xc)+E(xc)   XCENC  =       147.68831194
  PAW double counting   =      3480.85266339    -3474.83572920
  entropy T*S    EENTRO =        -0.02097399
  eigenvalues    EBANDS =      -750.76229982
  atomic energy  EATOM  =      3407.74547440
  Solvation  Ediel_sol  =         0.00000000
  ---------------------------------------------------
  free energy    TOTEN  =       -22.52641991 eV

  energy without entropy =      -22.50544592  energy(sigma->0) =      -22.51593292


--------------------------------------------------------------------------------------------------------




----------------------------------------- Iteration    1(  19)  ---------------------------------------


    POTLOK:  cpu time    5.9759: real time    5.9760
    SETDIJ:  cpu time    0.0211: real time    0.0211
     EDDAV:  cpu time   12.5709: real time   12.5904
       DOS:  cpu time    0.0230: real time    0.0230
    CHARGE:  cpu time    0.7425: real time    0.7425
    MIXING:  cpu time    0.0089: real time    0.0089
    --------------------------------------------
      LOOP:  cpu time   19.3455: real time   19.5970

 eigenvalue-minimisations  :  6264
 total energy-change (2. order) :-0.4649002E-03  (-0.6883644E-04)
 number of electron      38.0000007 magnetization       0.0150002
 augmentation part        4.3767644 magnetization       0.0146056

 Broyden mixing:
  rms(total) = 0.34780E-02    rms(broyden)= 0.34780E-02
  rms(prec ) = 0.35092E-02
  weight for this iteration     100.00

 eigenvalues of (default mixing * dielectric matrix)
  average eigenvalue GAMMA=   2.2424
 11.3652  5.3986  2.9423  2.3080  1.4727  1.4727  1.0529  1.0529  0.8382  0.8382
  0.7346  0.6267  0.6310  0.6596

 Free energy of the ion-electron system (eV)
  ---------------------------------------------------
  alpha Z        PSCENC =        46.40624597
  Ewald energy   TEWEN  =     11447.81749835
  -Hartree energ DENC   =    -14326.61408950
  -exchange      EXHF   =         0.00000000
  -V(xc)+E(xc)   XCENC  =       147.68062318
  PAW double counting   =      3481.73511838    -3475.71751481
  entropy T*S    EENTRO =        -0.02097727
  eigenvalues    EBANDS =      -751.55926352
  atomic energy  EATOM  =      3407.74547440
  Solvation  Ediel_sol  =         0.00000000
  ---------------------------------------------------
  free energy    TOTEN  =       -22.52688481 eV

  energy without entropy =      -22.50590754  energy(sigma->0) =      -22.51639617


--------------------------------------------------------------------------------------------------------




----------------------------------------- Iteration    1(  20)  ---------------------------------------


    POTLOK:  cpu time    5.6824: real time    5.7515
    SETDIJ:  cpu time    0.0209: real time    0.0209
     EDDAV:  cpu time   14.8873: real time   15.0597
       DOS:  cpu time    0.0228: real time    0.0228
    CHARGE:  cpu time    0.7457: real time    0.7459
    MIXING:  cpu time    0.0092: real time    0.0092
    --------------------------------------------
      LOOP:  cpu time   21.3724: real time   21.8842

 eigenvalue-minimisations  :  6912
 total energy-change (2. order) :-0.4482622E-03  (-0.2636973E-04)
 number of electron      38.0000007 magnetization       0.0056545
 augmentation part        4.3768029 magnetization       0.0054757

 Broyden mixing:
  rms(total) = 0.20846E-02    rms(broyden)= 0.20846E-02
  rms(prec ) = 0.21371E-02
  weight for this iteration     100.00

 eigenvalues of (default mixing * dielectric matrix)
  average eigenvalue GAMMA=   2.3427
 11.4025  7.5764  3.1893  2.2138  1.8792  1.4860  1.0826  1.0826  0.9177  0.9177
  0.7397  0.7397  0.6269  0.6318  0.6540

 Free energy of the ion-electron system (eV)
  ---------------------------------------------------
  alpha Z        PSCENC =        46.40624597
  Ewald energy   TEWEN  =     11447.81749835
  -Hartree energ DENC   =    -14326.21407971
  -exchange      EXHF   =         0.00000000
  -V(xc)+E(xc)   XCENC  =       147.67957837
  PAW double counting   =      3481.52028759    -3475.50376684
  entropy T*S    EENTRO =        -0.02097744
  eigenvalues    EBANDS =      -751.95759376
  atomic energy  EATOM  =      3407.74547440
  Solvation  Ediel_sol  =         0.00000000
  ---------------------------------------------------
  free energy    TOTEN  =       -22.52733307 eV

  energy without entropy =      -22.50635563  energy(sigma->0) =      -22.51684435


--------------------------------------------------------------------------------------------------------




----------------------------------------- Iteration    1(  21)  ---------------------------------------


    POTLOK:  cpu time    5.7349: real time    5.7353
    SETDIJ:  cpu time    0.0205: real time    0.0205
     EDDAV:  cpu time   13.7483: real time   13.8476
       DOS:  cpu time    0.0230: real time    0.0230
    CHARGE:  cpu time    0.7401: real time    0.7403
    MIXING:  cpu time    0.0095: real time    0.0095
    --------------------------------------------
      LOOP:  cpu time   20.2797: real time   20.4648

 eigenvalue-minimisations  :  7240
 total energy-change (2. order) :-0.3439679E-03  (-0.5585563E-05)
 number of electron      38.0000007 magnetization       0.0019985
 augmentation part        4.3767384 magnetization       0.0019718

 Broyden mixing:
  rms(total) = 0.94495E-03    rms(broyden)= 0.94495E-03
  rms(prec ) = 0.10146E-02
  weight for this iteration     100.00

 eigenvalues of (default mixing * dielectric matrix)
  average eigenvalue GAMMA=   2.4181
 11.4933  9.4563  3.2883  2.3639  2.0334  1.3731  1.2160  1.2160  1.0101  1.0101
  0.8657  0.7493  0.7052  0.6268  0.6268  0.6558

 Free energy of the ion-electron system (eV)
  ---------------------------------------------------
  alpha Z        PSCENC =        46.40624597
  Ewald energy   TEWEN  =     11447.81749835
  -Hartree energ DENC   =    -14326.10676279
  -exchange      EXHF   =         0.00000000
  -V(xc)+E(xc)   XCENC  =       147.68075017
  PAW double counting   =      3480.96072551    -3474.94434939
  entropy T*S    EENTRO =        -0.02097644
  eigenvalues    EBANDS =      -752.06628282
  atomic energy  EATOM  =      3407.74547440
  Solvation  Ediel_sol  =         0.00000000
  ---------------------------------------------------
  free energy    TOTEN  =       -22.52767704 eV

  energy without entropy =      -22.50670059  energy(sigma->0) =      -22.51718882


--------------------------------------------------------------------------------------------------------




----------------------------------------- Iteration    1(  22)  ---------------------------------------


    POTLOK:  cpu time    5.7296: real time    5.7300
    SETDIJ:  cpu time    0.0208: real time    0.0208
     EDDAV:  cpu time   12.0787: real time   12.2357
       DOS:  cpu time    0.0229: real time    0.0229
    CHARGE:  cpu time    0.7412: real time    0.7414
    MIXING:  cpu time    0.0105: real time    0.0105
    --------------------------------------------
      LOOP:  cpu time   18.6069: real time   18.8009

 eigenvalue-minimisations  :  6172
 total energy-change (2. order) : 0.5983842E-04  (-0.9767339E-06)
 number of electron      38.0000007 magnetization       0.0011754
 augmentation part        4.3767552 magnetization       0.0011436

 Broyden mixing:
  rms(total) = 0.43995E-03    rms(broyden)= 0.43995E-03
  rms(prec ) = 0.52445E-03
  weight for this iteration     100.00

 eigenvalues of (default mixing * dielectric matrix)
  average eigenvalue GAMMA=   2.3864
[...]
      5     -30.1178      1.00000
      6     -30.0465      1.00000
      7     -30.0197      1.00000
      8     -29.9994      1.00000
      9     -17.8801      1.00000
     10     -17.8794      1.00000
     11      -7.9878      1.00000
     12      -7.6664      1.00000
     13      -6.9619      1.00000
     14      -6.9095      1.00000
     15      -6.7361      1.00000
     16      -6.6065      1.00000
     17      -6.4196      1.00000
     18      -6.3833      1.00000
     19      -2.5425      1.00000
     20      -0.2190      0.00000
     21      -0.1036      0.00000
     22       0.2237      0.00000
     23       0.5817      0.00000
     24       1.0787      0.00000
     25       1.1368      0.00000
     26       1.6441      0.00000
     27       2.2767      0.00000
     28       2.6360      0.00000

 k-point    42 :       0.3500    0.2500    0.0000
  band No.  band energies     occupation 
      1     -50.9404      1.00000
      2     -50.9347      1.00000
      3     -30.1822      1.00000
      4     -30.1774      1.00000
      5     -30.1212      1.00000
      6     -30.0560      1.00000
      7     -30.0154      1.00000
      8     -30.0045      1.00000
      9     -17.8621      1.00000
     10     -17.8613      1.00000
     11      -7.9171      1.00000
     12      -7.6633      1.00000
     13      -7.0814      1.00000
     14      -6.9691      1.00000
     15      -6.6591      1.00000
     16      -6.6057      1.00000
     17      -6.4739      1.00000
     18      -6.4197      1.00000
     19      -2.5717      1.00000
     20      -0.2384      0.00000
     21      -0.0727      0.00000
     22       0.4426      0.00000
     23       0.7010      0.00000
     24       0.8989      0.00000
     25       1.0506      0.00000
     26       1.7249      0.00000
     27       2.3603      0.00000
     28       2.5322      0.00000

 k-point    43 :       0.3000    0.3000    0.0000
  band No.  band energies     occupation 
      1     -50.9398      1.00000
      2     -50.9350      1.00000
      3     -30.1785      1.00000
      4     -30.1693      1.00000
      5     -30.1319      1.00000
      6     -30.0588      1.00000
      7     -30.0170      1.00000
      8     -30.0045      1.00000
      9     -17.8583      1.00000
     10     -17.8573      1.00000
     11      -7.8338      1.00000
     12      -7.6091      1.00000
     13      -7.1586      1.00000
     14      -7.0785      1.00000
     15      -6.6602      1.00000
     16      -6.5830      1.00000
     17      -6.4815      1.00000
     18      -6.4327      1.00000
     19      -2.5652      1.00000
     20      -0.0717      0.00000
     21      -0.0362      0.00000
     22       0.2864      0.00000
     23       0.6484      0.00000
     24       0.8768      0.00000
     25       1.0433      0.00000
     26       1.7797      0.00000
     27       2.3193      0.00000
     28       2.5321      0.00000

 k-point    44 :       0.3500    0.3000    0.0000
  band No.  band energies     occupation 
      1     -50.9382      1.00000
      2     -50.9360      1.00000
      3     -30.1714      1.00000
      4     -30.1705      1.00000
      5     -30.1379      1.00000
      6     -30.0641      1.00000
      7     -30.0134      1.00000
      8     -30.0085      1.00000
      9     -17.8509      1.00000
     10     -17.8496      1.00000
     11      -7.7338      1.00000
     12      -7.5925      1.00000
     13      -7.2505      1.00000
     14      -7.1655      1.00000
     15      -6.6189      1.00000
     16      -6.5788      1.00000
     17      -6.4949      1.00000
     18      -6.4586      1.00000
     19      -2.5727      1.00000
     20      -0.0346      0.00000
     21      -0.0077      0.00000
     22       0.3882      0.00000
     23       0.6920      0.00000
     24       0.7248      0.00000
     25       0.9927      0.00000
     26       1.8423      0.00000
     27       2.3683      0.00000
     28       2.4384      0.00000


--------------------------------------------------------------------------------------------------------


 soft charge-density along one line, spin component           1
         0         1         2         3         4         5         6         7         8         9
 total charge-density along one line
 
 soft charge-density along one line, spin component           2
         0         1         2         3         4         5         6         7         8         9
 total charge-density along one line
 
 pseudopotential strength for first ion, spin component:           1
-19.544   9.298   0.000  -0.002  -0.000  -0.000   0.001   0.000
  9.298   1.782  -0.000  -0.000   0.000   0.000  -0.004  -0.000
  0.000  -0.000 -29.064   0.000   0.000   9.080  -0.000  -0.000
 -0.002  -0.000   0.000 -29.082  -0.000  -0.000   9.092   0.000
 -0.000   0.000   0.000  -0.000 -29.064  -0.000   0.000   9.080
 -0.000   0.000   9.080  -0.000  -0.000   3.744   0.000  -0.000
  0.001  -0.004  -0.000   9.092   0.000   0.000   3.738  -0.000
  0.000  -0.000  -0.000   0.000   9.080  -0.000  -0.000   3.744
  0.000  -0.000  -0.000  -0.000  -0.000   0.000   0.000   0.000
  0.000  -0.000   0.002   0.000  -0.000   0.000  -0.000   0.000
 -0.008   0.003  -0.000  -0.001   0.000   0.000   0.002  -0.000
 -0.000   0.000  -0.000  -0.000   0.002   0.000   0.000   0.000
 -0.000   0.000  -0.000   0.000  -0.000   0.000  -0.000   0.000
  0.000  -0.000  -0.000  -0.000  -0.000   0.000   0.000   0.000
  0.000  -0.000   0.002   0.000  -0.000   0.001  -0.000   0.000
 -0.010   0.003  -0.000  -0.001   0.000   0.000   0.003  -0.000
 -0.000   0.000  -0.000  -0.000   0.002   0.000   0.000   0.001
 -0.000   0.000  -0.000   0.000  -0.000   0.000  -0.000   0.000
 pseudopotential strength for first ion, spin component:           2
-19.544   9.298   0.000  -0.002  -0.000  -0.000   0.001   0.000
  9.298   1.782  -0.000  -0.000   0.000   0.000  -0.004  -0.000
  0.000  -0.000 -29.064   0.000  -0.000   9.080  -0.000   0.000
 -0.002  -0.000   0.000 -29.081  -0.000  -0.000   9.092   0.000
 -0.000   0.000  -0.000  -0.000 -29.064   0.000   0.000   9.080
 -0.000   0.000   9.080  -0.000   0.000   3.744   0.000  -0.000
  0.001  -0.004  -0.000   9.092   0.000   0.000   3.738  -0.000
  0.000  -0.000   0.000   0.000   9.080  -0.000  -0.000   3.744
 -0.000   0.000  -0.000  -0.000  -0.000   0.000   0.000   0.000
  0.000  -0.000   0.002   0.000  -0.000   0.000  -0.000   0.000
 -0.008   0.003  -0.000  -0.001   0.000   0.000   0.002  -0.000
 -0.000   0.000  -0.000  -0.000   0.002   0.000   0.000   0.000
  0.000  -0.000  -0.000   0.000  -0.000   0.000  -0.000   0.000
 -0.000   0.000  -0.000  -0.000  -0.000   0.000   0.000   0.000
  0.000  -0.000   0.002   0.000  -0.000   0.001  -0.000   0.000
 -0.010   0.003  -0.000  -0.001   0.000   0.000   0.003  -0.000
 -0.000   0.000  -0.000  -0.000   0.002   0.000   0.000   0.001
  0.000  -0.000  -0.000   0.000  -0.000   0.000  -0.000   0.000
 total augmentation occupancy for first ion, spin component:           1
  1.998  -0.032   0.000  -0.001   0.000   0.000  -0.002  -0.000  -0.000   0.000  -0.007   0.000  -0.000   0.000  -0.000   0.006
 -0.032   0.895   0.000  -0.009   0.000   0.000   0.036  -0.000   0.000   0.000   0.078   0.000   0.000  -0.000   0.000  -0.052
  0.000   0.000   1.993   0.000  -0.000  -0.036   0.000   0.000  -0.000  -0.019  -0.000   0.000  -0.002   0.000   0.013   0.000
 -0.001  -0.009  -0.000   1.992  -0.000  -0.000  -0.038   0.000  -0.000  -0.000  -0.025   0.000  -0.000   0.000   0.000   0.016
  0.000   0.000  -0.000  -0.000   1.993   0.000   0.000  -0.036  -0.002   0.000  -0.000  -0.019   0.000   0.001  -0.000   0.000
  0.000  -0.000  -0.036   0.000   0.000   0.093   0.000  -0.000   0.000  -0.015   0.000   0.000   0.041  -0.000   0.030  -0.000
 -0.002   0.036  -0.000  -0.038   0.000   0.000   0.102   0.000   0.000  -0.000   0.104  -0.000   0.000  -0.000   0.000  -0.065
  0.000   0.000   0.000   0.000  -0.036  -0.000   0.000   0.093   0.041   0.000   0.000  -0.015  -0.000  -0.033  -0.000  -0.000
 -0.000   0.000  -0.000  -0.000  -0.002   0.000   0.000   0.041   2.322   0.000   0.000   0.943   0.000  -1.273  -0.000  -0.000
  0.000   0.000  -0.019   0.000   0.000  -0.015   0.000   0.000   0.000   2.409   0.000  -0.000   0.943  -0.000  -1.302  -0.000
 -0.007   0.078  -0.000  -0.025  -0.000   0.000   0.104   0.000   0.000   0.000   2.484   0.000   0.000  -0.000  -0.000  -1.449
  0.000   0.000   0.000   0.000  -0.019   0.000  -0.000  -0.015   0.943  -0.000   0.000   2.409  -0.000  -0.674   0.000  -0.000
 -0.000   0.000  -0.002  -0.000   0.000   0.041   0.000  -0.000   0.000   0.943   0.000  -0.000   2.322  -0.000  -0.675  -0.000
  0.000  -0.000   0.000   0.000   0.001  -0.000  -0.000  -0.033  -1.273  -0.000  -0.000  -0.674  -0.000   0.735   0.000   0.000
 -0.000   0.000   0.013  -0.000  -0.000   0.030   0.000  -0.000  -0.000  -1.302  -0.000   0.000  -0.675   0.000   0.742   0.000
  0.006  -0.052   0.000   0.016   0.000  -0.000  -0.065  -0.000  -0.000  -0.000  -1.449  -0.000  -0.000   0.000   0.000   0.856
 -0.000   0.000  -0.000  -0.000   0.013  -0.000   0.000   0.030  -0.675   0.000  -0.000  -1.302   0.000   0.438  -0.000   0.000
  0.000  -0.000   0.001   0.000  -0.000  -0.033  -0.000   0.000  -0.000  -0.674  -0.000   0.000  -1.273   0.000   0.438   0.000
 total augmentation occupancy for first ion, spin component:           2
 -0.000  -0.000   0.000   0.000   0.000   0.000   0.000  -0.000  -0.000  -0.000  -0.000  -0.000  -0.000   0.000   0.000   0.000
 -0.000  -0.000  -0.000   0.000   0.000  -0.000  -0.000  -0.000  -0.000  -0.000  -0.000  -0.000  -0.000  -0.000   0.000  -0.000
  0.000   0.000  -0.000   0.000   0.000  -0.000   0.000   0.000   0.000   0.000   0.000  -0.000   0.000  -0.000  -0.000  -0.000
  0.000   0.000  -0.000  -0.000  -0.000   0.000  -0.000   0.000   0.000   0.000   0.000  -0.000   0.000  -0.000  -0.000  -0.000
  0.000   0.000   0.000  -0.000  -0.000   0.000   0.000  -0.000   0.000  -0.000   0.000   0.000  -0.000  -0.000   0.000  -0.000
 -0.000  -0.000  -0.000   0.000   0.000  -0.000  -0.000   0.000   0.000  -0.000   0.000   0.000   0.000  -0.000   0.000  -0.000
  0.000  -0.000   0.000  -0.000   0.000  -0.000   0.000  -0.000  -0.000   0.000  -0.000  -0.000  -0.000   0.000  -0.000   0.000
 -0.000   0.000   0.000  -0.000  -0.000   0.000  -0.000  -0.000   0.000   0.000   0.000  -0.000  -0.000  -0.000  -0.000  -0.000
 -0.000  -0.000   0.000   0.000   0.000   0.000  -0.000   0.000  -0.000  -0.000  -0.000  -0.000  -0.000   0.000  -0.000   0.000
  0.000  -0.000   0.000   0.000  -0.000  -0.000  -0.000   0.000  -0.000  -0.000  -0.000   0.000  -0.000   0.000   0.000   0.000
 -0.000  -0.000   0.000   0.000   0.000   0.000  -0.000   0.000  -0.000  -0.000  -0.000  -0.000  -0.000   0.000  -0.000   0.000
 -0.000  -0.000  -0.000  -0.000   0.000   0.000  -0.000  -0.000  -0.000   0.000  -0.000  -0.000   0.000   0.000  -0.000   0.000
 -0.000  -0.000   0.000   0.000  -0.000   0.000  -0.000  -0.000  -0.000  -0.000  -0.000   0.000  -0.000   0.000  -0.000   0.000
  0.000  -0.000  -0.000  -0.000  -0.000  -0.000   0.000  -0.000   0.000   0.000   0.000   0.000   0.000  -0.000  -0.000  -0.000
  0.000   0.000  -0.000  -0.000   0.000   0.000   0.000  -0.000  -0.000   0.000  -0.000  -0.000  -0.000  -0.000  -0.000  -0.000
  0.000  -0.000  -0.000  -0.000  -0.000  -0.000   0.000  -0.000   0.000   0.000   0.000   0.000   0.000  -0.000  -0.000  -0.000
  0.000   0.000   0.000  -0.000  -0.000  -0.000   0.000   0.000  -0.000  -0.000  -0.000   0.000   0.000  -0.000   0.000  -0.000
  0.000  -0.000  -0.000  -0.000   0.000  -0.000   0.000   0.000   0.000   0.000   0.000  -0.000   0.000  -0.000  -0.000  -0.000


------------------------ aborting loop because EDIFF is reached ----------------------------------------


 


 total charge     
 
# of ion     s       p       d       tot
----------------------------------------
  1        2.160   6.154   1.131   9.444
  2        2.160   6.154   1.131   9.444
  3        0.583   0.009   0.000   0.592
  4        0.583   0.009   0.000   0.592
  5        1.629   3.579   0.000   5.208
  6        1.629   3.579   0.000   5.208
------------------------------------------------
tot        8.743  19.483   2.261  30.487
 


 magnetization (x)
 
# of ion     s       p       d       tot
----------------------------------------
  1       -0.000  -0.000   0.000   0.000
  2       -0.000  -0.000   0.000   0.000
  3       -0.000   0.000   0.000  -0.000
  4       -0.000   0.000   0.000  -0.000
  5       -0.000   0.000   0.000   0.000
  6       -0.000   0.000   0.000   0.000
------------------------------------------------
tot       -0.000   0.000   0.000   0.000
 
    CHARGE:  cpu time    0.7355: real time    0.7359
    FORLOC:  cpu time    0.0092: real time    0.0092
    FORNL :  cpu time    1.4196: real time    1.4501
    STRESS:  cpu time    2.8523: real time    2.8864
    FORCOR:  cpu time    5.7615: real time    5.7861
    FORHAR:  cpu time    0.0331: real time    0.0331
    MIXING:  cpu time    0.0230: real time    0.0230
    OFIELD:  cpu time    0.0010: real time    0.0002

  FORCE on cell =-STRESS in cart. coord.  units (eV):
  Direction    XX          YY          ZZ          XY          YZ          ZX
  --------------------------------------------------------------------------------------
  Alpha Z    47.00115    47.00115    47.00115
  Ewald   13265.43003 13265.43018-14948.29751     0.00019     0.00003     0.00005
  Hartree 13990.90278 13990.90277-13518.10923    -0.00001     0.00002     0.00000
  E(xc)    -167.29284  -167.29285  -166.80759    -0.00001    -0.00000    -0.00000
  Local  -27741.33584-27741.33594 27982.82860    -0.00005    -0.00005    -0.00004
  n-local    53.45521    55.08519    54.97304    -3.48572     0.55986     2.23447
  augment    20.78971    20.78968    20.32399    -0.00003     0.00001    -0.00002
  Kinetic   528.71367   531.75415   528.10204    -5.04912    -0.72970    -4.44836
  Fock        0.00000     0.00000     0.00000     0.00000     0.00000     0.00000
  -------------------------------------------------------------------------------------
  Total      -0.00091    -0.00091     0.01450     0.00000    -0.00000    -0.00000
  in kB      -0.00539    -0.00539     0.08564     0.00000    -0.00000    -0.00000
  external pressure =        0.02 kB  Pullay stress =        0.00 kB


 VOLUME and BASIS-vectors are now :
 -----------------------------------------------------------------------------
  energy-cutoff  :      650.00
  volume of cell :      271.21
      direct lattice vectors                 reciprocal lattice vectors
     3.487836232  0.000000004  0.000000000     0.286710709  0.165532550  0.000000000
    -1.743918610  3.020554822  0.000000000    -0.000000000  0.331065006  0.000000000
     0.000000000  0.000000000 25.743165000     0.000000000  0.000000000  0.038845262

  length of vectors
     3.487836232  3.487836515 25.743165000     0.331065032  0.331065006  0.038845262


 FORCES acting on ions
    electron-ion (+dipol)            ewald-force                    non-local-force                 convergence-correction
 -----------------------------------------------------------------------------------------------
   -.185E-02 0.107E-02 0.878E+03   -.273E-03 0.160E-03 -.877E+03   -.208E-16 0.694E-17 -.167E+01   0.375E-09 -.250E-09 0.198E-02
   0.185E-02 -.107E-02 -.878E+03   0.273E-03 -.160E-03 0.877E+03   0.278E-16 -.694E-17 0.167E+01   -.375E-09 0.250E-09 -.198E-02
   -.299E-04 0.214E-04 -.519E+02   -.138E-03 0.734E-04 0.521E+02   -.304E-17 0.867E-18 -.202E+00   0.165E-10 -.119E-10 -.122E-03
   0.299E-04 -.214E-04 0.519E+02   0.138E-03 -.734E-04 -.521E+02   -.434E-18 -.867E-18 0.202E+00   -.165E-10 0.119E-10 0.122E-03
   -.150E-04 0.164E-04 0.129E+04   0.758E-04 -.565E-04 -.129E+04   -.347E-17 0.694E-17 0.213E+01   -.191E-10 0.112E-10 0.169E-02
   0.150E-04 -.164E-04 -.129E+04   -.758E-04 0.565E-04 0.129E+04   0.000E+00 -.694E-17 -.213E+01   0.191E-10 -.112E-10 -.169E-02
 -----------------------------------------------------------------------------------------------
   -.924E-12 0.106E-11 0.601E-10   -.767E-14 0.193E-13 0.000E+00   0.000E+00 0.000E+00 0.888E-15   0.500E-14 0.203E-14 0.854E-12
 
 
 POSITION                                       TOTAL-FORCE (eV/Angst)
 -----------------------------------------------------------------------------------
      1.74392      1.00685     11.60569        -0.000000      0.000000     -0.000450
     -0.00000      2.01370     14.13747         0.000000     -0.000000      0.000450
      1.74392      1.00685     13.61132         0.000000      0.000000      0.000011
     -0.00000      2.01370     12.13185         0.000000     -0.000000     -0.000011
     -0.00000      0.00000      9.99299         0.000000      0.000000     -0.000297
     -0.00000     -0.00000     15.75017         0.000000     -0.000000      0.000297
 -----------------------------------------------------------------------------------
    total drift:                               -0.000000      0.000000      0.000000


--------------------------------------------------------------------------------------------------------



  FREE ENERGIE OF THE ION-ELECTRON SYSTEM (eV)
  ---------------------------------------------------
  free  energy   TOTEN  =       -22.53220779 eV

  energy  without entropy=      -22.51010215  energy(sigma->0) =      -22.52115497
 
 d Force = 0.2581062E-06[ 0.366E-07, 0.480E-06]  d Energy =-0.5128086E-04 0.515E-04
 d Force =-0.3354200E-01[-0.335E-01,-0.335E-01]  d Ewald  =-0.1930014E+00 0.159E+00


--------------------------------------------------------------------------------------------------------


    POTLOK:  cpu time    5.7781: real time    5.7816


--------------------------------------------------------------------------------------------------------




--------------------------------------------------------------------------------------------------------


  
 reached required accuracy - stopping structural energy minimisation
     LOOP+:  cpu time  846.5130: real time  871.9627
    4ORBIT:  cpu time    0.0000: real time    0.0000
 


 total charge     
 
# of ion     s       p       d       tot
----------------------------------------
  1        2.160   6.154   1.131   9.444
  2        2.160   6.154   1.131   9.444
  3        0.583   0.009   0.000   0.592
  4        0.583   0.009   0.000   0.592
  5        1.629   3.579   0.000   5.208
  6        1.629   3.579   0.000   5.208
------------------------------------------------
tot        8.743  19.483   2.261  30.487
 


 magnetization (x)
 
# of ion     s       p       d       tot
----------------------------------------
  1       -0.000  -0.000   0.000   0.000
  2       -0.000  -0.000   0.000   0.000
  3       -0.000   0.000   0.000  -0.000
  4       -0.000   0.000   0.000  -0.000
  5       -0.000   0.000   0.000   0.000
  6       -0.000   0.000   0.000   0.000
------------------------------------------------
tot       -0.000   0.000   0.000   0.000
 

 total amount of memory used by VASP on root node    94047. kBytes
========================================================================

   base      :      30000. kBytes
   nonl-proj :      33546. kBytes
   fftplans  :       3501. kBytes
   grid      :       9465. kBytes
   one-center:         31. kBytes
   wavefun   :      17504. kBytes
 
  
  
 General timing and accounting informations for this job:
 ========================================================
  
                  Total CPU time used (sec):    14233.060
                            User time (sec):    13992.312
                          System time (sec):      240.748
                         Elapsed time (sec):    14560.633
  
                   Maximum memory used (kb):      251432.
                   Average memory used (kb):           0.
  
                          Minor page faults:     44327355
                          Major page faults:            3
                 Voluntary context switches:        15149
