       N       E                     dE             d eps       ncg     rms          rms(c)
DAV:   1     0.399352415312E+03    0.39935E+03   -0.13676E+04   640   0.839E+02
DAV:   2     0.707519759989E+02   -0.32860E+03   -0.31434E+03  1056   0.141E+02
DAV:   3     0.128004614478E+00   -0.70624E+02   -0.70239E+02   752   0.701E+01
DAV:   4    -0.303593857946E+01   -0.31639E+01   -0.31593E+01   880   0.187E+01
DAV:   5    -0.308994838891E+01   -0.54010E-01   -0.54007E-01   840   0.319E+00    0.102E+01
DAV:   6    -0.111203739422E+01    0.19779E+01   -0.27107E+00   736   0.585E+00    0.677E+00
DAV:   7    -0.155188774330E+01   -0.43985E+00   -0.87810E-01   752   0.342E+00    0.468E+00
DAV:   8    -0.183276428886E+01   -0.28088E+00   -0.24339E-01   728   0.255E+00    0.285E+00
DAV:   9    -0.212015096360E+01   -0.28739E+00   -0.15265E-01   728   0.178E+00    0.206E+00
DAV:  10    -0.227484817333E+01   -0.15470E+00   -0.20272E-01   640   0.216E+00    0.168E+00
DAV:  11    -0.252897271861E+01   -0.25412E+00   -0.49005E-02   728   0.101E+00    0.108E+00
DAV:  12    -0.267211124937E+01   -0.14314E+00   -0.40507E-02   744   0.690E-01    0.430E-01
DAV:  13    -0.268850636194E+01   -0.16395E-01   -0.78709E-03   760   0.367E-01    0.196E-01
DAV:  14    -0.268925782109E+01   -0.75146E-03   -0.31788E-03   712   0.295E-01    0.714E-02
DAV:  15    -0.268882628735E+01    0.43153E-03   -0.23510E-04   760   0.791E-02    0.295E-02
DAV:  16    -0.268880314337E+01    0.23144E-04   -0.36659E-05   736   0.354E-02    0.147E-02
DAV:  17    -0.268887143496E+01   -0.68292E-04   -0.17988E-05   680   0.196E-02    0.703E-03
DAV:  18    -0.268892586118E+01   -0.54426E-04   -0.10942E-05   712   0.152E-02    0.336E-03
DAV:  19    -0.268889507493E+01    0.30786E-04   -0.55210E-06   592   0.106E-02    0.221E-03
DAV:  20    -0.268888491175E+01    0.10163E-04   -0.44642E-06   608   0.837E-03    0.110E-03
DAV:  21    -0.268889126735E+01   -0.63556E-05   -0.22662E-06   672   0.604E-03    0.981E-04
DAV:  22    -0.268889961765E+01   -0.83503E-05   -0.12205E-06   640   0.515E-03    0.610E-04
DAV:  23    -0.268893770617E+01   -0.38089E-04   -0.67031E-06   656   0.859E-03    0.366E-04
DAV:  24    -0.268896641105E+01   -0.28705E-04   -0.24279E-06   664   0.610E-03    0.275E-04
DAV:  25    -0.268896557494E+01    0.83611E-06   -0.15635E-06   592   0.553E-03    0.128E-04
DAV:  26    -0.268896614380E+01   -0.56885E-06   -0.14840E-06   592   0.513E-03    0.856E-05
DAV:  27    -0.268896811732E+01   -0.19735E-05   -0.51738E-07   600   0.324E-03    0.562E-05
DAV:  28    -0.268897249475E+01   -0.43774E-05   -0.42840E-07   592   0.318E-03    0.250E-05
DAV:  29    -0.268897635342E+01   -0.38587E-05   -0.29691E-07   584   0.275E-03    0.231E-05
DAV:  30    -0.268898006110E+01   -0.37077E-05   -0.20051E-07   608   0.219E-03    0.150E-05
DAV:  31    -0.268898218086E+01   -0.21198E-05   -0.13365E-07   560   0.181E-03    0.141E-05
DAV:  32    -0.268898368784E+01   -0.15070E-05   -0.90604E-08   544   0.174E-03    0.131E-05
DAV:  33    -0.268898465428E+01   -0.96644E-06   -0.48665E-08   576   0.131E-03    0.106E-05
DAV:  34    -0.268898494764E+01   -0.29336E-06   -0.50775E-08   512   0.120E-03    0.109E-05
DAV:  35    -0.268898530499E+01   -0.35735E-06   -0.64597E-08   512   0.146E-03    0.107E-05
DAV:  36    -0.268898536380E+01   -0.58810E-07   -0.44718E-08   488   0.120E-03
   1 F= -.26889854E+01 E0= -.26889854E+01  d E =-.268899E+01  mag=     0.0000
       N       E                     dE             d eps       ncg     rms          rms(c)
DAV:   1    -0.273416938681E+01   -0.45184E-01   -0.91149E-01   672   0.271E+00    0.112E+00
DAV:   2    -0.271590259328E+01    0.18267E-01   -0.45749E-02   720   0.755E-01    0.483E-01
DAV:   3    -0.270081853646E+01    0.15084E-01   -0.21303E-02   760   0.395E-01    0.242E-01
DAV:   4    -0.269835812807E+01    0.24604E-02   -0.51686E-04   848   0.945E-02    0.213E-01
DAV:   5    -0.269810411856E+01    0.25401E-03   -0.53371E-04   744   0.675E-02    0.695E-02
DAV:   6    -0.269702305294E+01    0.10811E-02   -0.37458E-04   864   0.545E-02    0.306E-02
DAV:   7    -0.269697135387E+01    0.51699E-04   -0.14062E-05   784   0.138E-02    0.266E-02
DAV:   8    -0.269689992515E+01    0.71429E-04   -0.55320E-06   752   0.745E-03    0.200E-02
DAV:   9    -0.269699388217E+01   -0.93957E-04   -0.51957E-06   656   0.805E-03    0.128E-02
DAV:  10    -0.269697552516E+01    0.18357E-04   -0.29354E-07   736   0.212E-03    0.722E-03
DAV:  11    -0.269698035562E+01   -0.48305E-05   -0.39470E-07   696   0.179E-03    0.270E-03
DAV:  12    -0.269700053756E+01   -0.20182E-04   -0.55213E-07   640   0.199E-03    0.210E-03
DAV:  13    -0.269700919306E+01   -0.86555E-05   -0.43645E-08   608   0.733E-04    0.153E-03
DAV:  14    -0.269702845218E+01   -0.19259E-04   -0.14507E-06   640   0.313E-03    0.480E-04
DAV:  15    -0.269703120075E+01   -0.27486E-05   -0.37384E-07   640   0.252E-03    0.912E-04
DAV:  16    -0.269702491397E+01    0.62868E-05   -0.14112E-06   576   0.489E-03    0.509E-04
DAV:  17    -0.269701915769E+01    0.57563E-05   -0.56650E-07   640   0.353E-03    0.610E-04
DAV:  18    -0.269701428694E+01    0.48707E-05   -0.25856E-07   584   0.260E-03    0.156E-04
DAV:  19    -0.269700918946E+01    0.50975E-05   -0.39547E-07   576   0.303E-03    0.890E-05
DAV:  20    -0.269700607368E+01    0.31158E-05   -0.31486E-07   632   0.285E-03    0.272E-05
DAV:  21    -0.269700459365E+01    0.14800E-05   -0.10543E-07   592   0.178E-03    0.188E-05
DAV:  22    -0.269700370958E+01    0.88407E-06   -0.61571E-08   520   0.151E-03    0.184E-05
DAV:  23    -0.269700305732E+01    0.65225E-06   -0.30339E-08   520   0.103E-03    0.180E-05
DAV:  24    -0.269700278946E+01    0.26787E-06   -0.19637E-08   488   0.817E-04    0.119E-05
DAV:  25    -0.269700265820E+01    0.13126E-06   -0.18605E-08   480   0.786E-04    0.107E-05
DAV:  26    -0.269700256213E+01    0.96073E-07   -0.20272E-08   480   0.757E-04
   2 F= -.26970026E+01 E0= -.26970026E+01  d E =-.801720E-02  mag=     0.0000
       N       E                     dE             d eps       ncg     rms          rms(c)
DAV:   1    -0.271005518370E+01   -0.13053E-01   -0.29913E-01   664   0.155E+00    0.639E-01
DAV:   2    -0.270624456374E+01    0.38106E-02   -0.15012E-02   736   0.433E-01    0.276E-01
DAV:   3    -0.269942435268E+01    0.68202E-02   -0.69909E-03   712   0.226E-01    0.136E-01
DAV:   4    -0.269806341253E+01    0.13609E-02   -0.17125E-04   864   0.545E-02    0.120E-01
DAV:   5    -0.269805844680E+01    0.49657E-05   -0.15460E-04   752   0.366E-02    0.424E-02
DAV:   6    -0.269746666227E+01    0.59178E-03   -0.13389E-04   800   0.329E-02    0.171E-02
DAV:   7    -0.269741922272E+01    0.47440E-04   -0.53718E-06   720   0.866E-03    0.136E-02
DAV:   8    -0.269735614709E+01    0.63076E-04   -0.25208E-06   640   0.555E-03    0.971E-03
DAV:   9    -0.269739032353E+01   -0.34176E-04   -0.11008E-06   656   0.453E-03    0.382E-03
DAV:  10    -0.269740023618E+01   -0.99127E-05   -0.72386E-08   552   0.135E-03    0.246E-03
DAV:  11    -0.269741696710E+01   -0.16731E-04   -0.87167E-08   544   0.111E-03    0.114E-03
DAV:  12    -0.269744989895E+01   -0.32932E-04   -0.46039E-07   640   0.205E-03    0.633E-04
DAV:  13    -0.269744591683E+01    0.39821E-05   -0.43975E-08   496   0.111E-03    0.263E-04
DAV:  14    -0.269744676334E+01   -0.84651E-06   -0.68224E-07   608   0.312E-03    0.221E-04
DAV:  15    -0.269744933609E+01   -0.25727E-05   -0.45037E-07   640   0.296E-03    0.112E-04
DAV:  16    -0.269744807131E+01    0.12648E-05   -0.34421E-07   608   0.287E-03    0.754E-05
DAV:  17    -0.269744362362E+01    0.44477E-05   -0.66695E-07   608   0.385E-03    0.419E-05
DAV:  18    -0.269744052489E+01    0.30987E-05   -0.26366E-07   600   0.268E-03    0.541E-05
DAV:  19    -0.269743897269E+01    0.15522E-05   -0.15610E-07   592   0.209E-03    0.282E-05
DAV:  20    -0.269743780926E+01    0.11634E-05   -0.75259E-08   560   0.164E-03    0.259E-05
DAV:  21    -0.269743596149E+01    0.18478E-05   -0.81733E-08   544   0.164E-03    0.121E-05
DAV:  22    -0.269743560001E+01    0.36149E-06   -0.29646E-08   520   0.102E-03    0.122E-05
DAV:  23    -0.269743552084E+01    0.79168E-07   -0.15144E-08   480   0.796E-04
   3 F= -.26974355E+01 E0= -.26974355E+01  d E =-.845016E-02  mag=     0.0000
       N       E                     dE             d eps       ncg     rms          rms(c)
DAV:   1    -0.270750563174E+01   -0.10070E-01   -0.55823E-01   736   0.230E+00    0.400E-01
DAV:   2    -0.270976794402E+01   -0.22623E-02   -0.24407E-02   664   0.549E-01    0.237E-01
DAV:   3    -0.270760554125E+01    0.21624E-02   -0.11551E-03   776   0.117E-01    0.143E-01
DAV:   4    -0.270568216820E+01    0.19234E-02   -0.43237E-04   672   0.612E-02    0.714E-02
DAV:   5    -0.270476518633E+01    0.91698E-03   -0.29533E-04   720   0.489E-02    0.404E-02
DAV:   6    -0.270498180683E+01   -0.21662E-03   -0.25654E-05   792   0.184E-02    0.210E-02
DAV:   7    -0.270516325178E+01   -0.18144E-03   -0.25166E-06   696   0.622E-03    0.601E-03
DAV:   8    -0.270523858105E+01   -0.75329E-04   -0.85833E-07   704   0.435E-03    0.250E-03
DAV:   9    -0.270533331400E+01   -0.94733E-04   -0.38250E-07   640   0.309E-03    0.106E-03
DAV:  10    -0.270533282524E+01    0.48876E-06   -0.83840E-08   576   0.165E-03    0.423E-04
DAV:  11    -0.270533714774E+01   -0.43225E-05   -0.60711E-08   520   0.137E-03    0.407E-04
DAV:  12    -0.270534594501E+01   -0.87973E-05   -0.75541E-08   560   0.139E-03    0.166E-04
DAV:  13    -0.270534405923E+01    0.18858E-05   -0.11883E-07   624   0.164E-03    0.166E-04
DAV:  14    -0.270534466895E+01   -0.60972E-06   -0.20509E-07   624   0.223E-03    0.708E-05
DAV:  15    -0.270534829749E+01   -0.36285E-05   -0.21375E-07   592   0.235E-03    0.842E-05
DAV:  16    -0.270534795349E+01    0.34400E-06   -0.28849E-07   592   0.277E-03    0.543E-05
DAV:  17    -0.270534599063E+01    0.19629E-05   -0.14420E-07   608   0.207E-03    0.292E-05
DAV:  18    -0.270534396691E+01    0.20237E-05   -0.13459E-07   568   0.204E-03    0.187E-05
DAV:  19    -0.270534280917E+01    0.11577E-05   -0.94021E-08   568   0.172E-03    0.177E-05
DAV:  20    -0.270534182676E+01    0.98241E-06   -0.60501E-08   504   0.140E-03    0.129E-05
DAV:  21    -0.270534090721E+01    0.91955E-06   -0.49493E-08   504   0.126E-03    0.112E-05
DAV:  22    -0.270534070880E+01    0.19841E-06   -0.24408E-08   512   0.895E-04    0.105E-05
DAV:  23    -0.270534067205E+01    0.36751E-07   -0.75041E-09   504   0.531E-04
   4 F= -.27053407E+01 E0= -.27053407E+01  d E =-.790515E-02  mag=     0.0000
       N       E                     dE             d eps       ncg     rms          rms(c)
DAV:   1    -0.274682055351E+01   -0.41480E-01   -0.50759E+00   744   0.694E+00    0.124E+00
DAV:   2    -0.274487161585E+01    0.19489E-02   -0.23247E-01   736   0.166E+00    0.690E-01
DAV:   3    -0.273316370538E+01    0.11708E-01   -0.11136E-02   728   0.359E-01    0.414E-01
DAV:   4    -0.272578387406E+01    0.73798E-02   -0.34983E-03   704   0.177E-01    0.222E-01
DAV:   5    -0.272302337642E+01    0.27605E-02   -0.24777E-03   776   0.142E-01    0.116E-01
DAV:   6    -0.272382990706E+01   -0.80653E-03   -0.27968E-04   816   0.554E-02    0.391E-02
DAV:   7    -0.272426005239E+01   -0.43015E-03   -0.13096E-05   640   0.140E-02    0.109E-02
DAV:   8    -0.272436488821E+01   -0.10484E-03   -0.21532E-06   704   0.588E-03    0.927E-03
DAV:   9    -0.272454391554E+01   -0.17903E-03   -0.40317E-07   608   0.276E-03    0.360E-03
DAV:  10    -0.272463327284E+01   -0.89357E-04   -0.18496E-07   608   0.182E-03    0.782E-04
DAV:  11    -0.272460907653E+01    0.24196E-04   -0.94187E-08   544   0.105E-03    0.854E-04
DAV:  12    -0.272465575073E+01   -0.46674E-04   -0.63976E-07   592   0.215E-03    0.596E-04
DAV:  13    -0.272466323497E+01   -0.74842E-05   -0.81486E-08   568   0.955E-04    0.563E-04
DAV:  14    -0.272466919894E+01   -0.59640E-05   -0.76448E-07   592   0.256E-03    0.270E-04
DAV:  15    -0.272467284876E+01   -0.36498E-05   -0.25284E-07   592   0.211E-03    0.230E-04
DAV:  16    -0.272467466850E+01   -0.18197E-05   -0.33158E-07   568   0.256E-03    0.108E-04
DAV:  17    -0.272467193419E+01    0.27343E-05   -0.91576E-07   576   0.395E-03    0.846E-05
DAV:  18    -0.272466823650E+01    0.36977E-05   -0.12752E-07   592   0.189E-03    0.425E-05
DAV:  19    -0.272466551152E+01    0.27250E-05   -0.10664E-07   528   0.170E-03    0.196E-05
DAV:  20    -0.272466382931E+01    0.16822E-05   -0.74949E-08   520   0.144E-03    0.147E-05
DAV:  21    -0.272466356822E+01    0.26109E-06   -0.17286E-08   528   0.835E-04    0.117E-05
DAV:  22    -0.272466274362E+01    0.82461E-06   -0.22334E-08   448   0.931E-04    0.111E-05
DAV:  23    -0.272466227501E+01    0.46860E-06   -0.15380E-08   480   0.743E-04    0.105E-05
DAV:  24    -0.272466209569E+01    0.17932E-06   -0.12222E-08   464   0.628E-04    0.106E-05
DAV:  25    -0.272466186399E+01    0.23170E-06   -0.15921E-08   464   0.735E-04    0.104E-05
DAV:  26    -0.272466178306E+01    0.80925E-07   -0.75916E-09   464   0.600E-04
   5 F= -.27246618E+01 E0= -.27246618E+01  d E =-.272263E-01  mag=     0.0000
       N       E                     dE             d eps       ncg     rms          rms(c)
DAV:   1    -0.283831384431E+01   -0.11365E+00   -0.20569E+01   752   0.140E+01    0.272E+00
DAV:   2    -0.280263824369E+01    0.35676E-01   -0.95629E-01   744   0.334E+00    0.134E+00
DAV:   3    -0.276287325333E+01    0.39765E-01   -0.48861E-02   728   0.744E-01    0.817E-01
DAV:   4    -0.274493531550E+01    0.17938E-01   -0.12168E-02   736   0.337E-01    0.490E-01
DAV:   5    -0.273968112210E+01    0.52542E-02   -0.79978E-03   712   0.259E-01    0.217E-01
DAV:   6    -0.274042944317E+01   -0.74832E-03   -0.14741E-03   816   0.119E-01    0.912E-02
DAV:   7    -0.274121205178E+01   -0.78261E-03   -0.36718E-05   752   0.234E-02    0.403E-02
DAV:   8    -0.274164422680E+01   -0.43218E-03   -0.83367E-06   768   0.105E-02    0.204E-02
DAV:   9    -0.274205455285E+01   -0.41033E-03   -0.30776E-06   736   0.671E-03    0.490E-03
DAV:  10    -0.274214086208E+01   -0.86309E-04   -0.41202E-07   632   0.228E-03    0.158E-03
DAV:  11    -0.274216101349E+01   -0.20151E-04   -0.29794E-07   584   0.167E-03    0.961E-04
DAV:  12    -0.274218323753E+01   -0.22224E-04   -0.14061E-06   616   0.283E-03    0.677E-04
DAV:  13    -0.274221974548E+01   -0.36508E-04   -0.43226E-07   728   0.161E-03    0.620E-04
DAV:  14    -0.274224346138E+01   -0.23716E-04   -0.10507E-06   688   0.238E-03    0.424E-04
DAV:  15    -0.274224838870E+01   -0.49273E-05   -0.32602E-07   640   0.148E-03    0.200E-04
DAV:  16    -0.274225332033E+01   -0.49316E-05   -0.43859E-07   624   0.213E-03    0.210E-04
DAV:  17    -0.274225764890E+01   -0.43286E-05   -0.12249E-06   576   0.423E-03    0.874E-05
DAV:  18    -0.274225597530E+01    0.16736E-05   -0.68928E-07   576   0.343E-03    0.508E-05
DAV:  19    -0.274225184598E+01    0.41293E-05   -0.31224E-07   560   0.259E-03    0.354E-05
DAV:  20    -0.274224724025E+01    0.46057E-05   -0.20517E-07   592   0.208E-03    0.241E-05
DAV:  21    -0.274224540824E+01    0.18320E-05   -0.32796E-08   496   0.107E-03    0.190E-05
DAV:  22    -0.274224436560E+01    0.10426E-05   -0.14339E-08   464   0.697E-04    0.130E-05
DAV:  23    -0.274224370082E+01    0.66478E-06   -0.11029E-08   496   0.664E-04    0.133E-05
DAV:  24    -0.274224311998E+01    0.58084E-06   -0.13020E-08   448   0.705E-04    0.116E-05
DAV:  25    -0.274224293850E+01    0.18148E-06   -0.12688E-08   448   0.704E-04    0.102E-05
DAV:  26    -0.274224287122E+01    0.67286E-07   -0.79097E-09   448   0.599E-04
   6 F= -.27422429E+01 E0= -.27422429E+01  d E =-.448074E-01  mag=     0.0000
       N       E                     dE             d eps       ncg     rms          rms(c)
DAV:   1    -0.275546661585E+01   -0.13224E-01   -0.92572E-01   640   0.297E+00    0.644E-01
DAV:   2    -0.274239122848E+01    0.13075E-01   -0.43826E-02   640   0.756E-01    0.376E-01
DAV:   3    -0.274352650439E+01   -0.11353E-02   -0.42354E-03   672   0.201E-01    0.176E-01
DAV:   4    -0.274630840728E+01   -0.27819E-02   -0.72317E-04   688   0.829E-02    0.959E-02
DAV:   5    -0.274819642922E+01   -0.18880E-02   -0.70186E-04   704   0.747E-02    0.563E-02
DAV:   6    -0.274757060195E+01    0.62583E-03   -0.48261E-05   768   0.263E-02    0.233E-02
DAV:   7    -0.274732505177E+01    0.24555E-03   -0.22098E-05   688   0.167E-02    0.460E-03
DAV:   8    -0.274729303071E+01    0.32021E-04   -0.16619E-06   792   0.630E-03    0.362E-03
DAV:   9    -0.274718913127E+01    0.10390E-03   -0.10534E-06   576   0.521E-03    0.124E-03
DAV:  10    -0.274720800519E+01   -0.18874E-04   -0.68317E-07   576   0.463E-03    0.705E-04
DAV:  11    -0.274717983094E+01    0.28174E-04   -0.33501E-06   608   0.751E-03    0.778E-04
DAV:  12    -0.274717832387E+01    0.15071E-05   -0.11912E-06   608   0.539E-03    0.660E-04
DAV:  13    -0.274719010342E+01   -0.11780E-04   -0.92119E-07   576   0.469E-03    0.406E-04
DAV:  14    -0.274720823009E+01   -0.18127E-04   -0.30126E-06   608   0.661E-03    0.136E-04
DAV:  15    -0.274721185049E+01   -0.36204E-05   -0.58749E-07   608   0.334E-03    0.107E-04
DAV:  16    -0.274721877509E+01   -0.69246E-05   -0.46706E-07   576   0.283E-03    0.740E-05
DAV:  17    -0.274722247816E+01   -0.37031E-05   -0.17211E-07   576   0.183E-03    0.519E-05
DAV:  18    -0.274722373889E+01   -0.12607E-05   -0.12857E-07   560   0.151E-03    0.286E-05
DAV:  19    -0.274722383963E+01   -0.10074E-06   -0.18641E-08   480   0.787E-04    0.255E-05
DAV:  20    -0.274722488071E+01   -0.10411E-05   -0.13351E-08   448   0.649E-04    0.149E-05
DAV:  21    -0.274722558975E+01   -0.70904E-06   -0.79045E-09   464   0.550E-04    0.124E-05
DAV:  22    -0.274722570037E+01   -0.11062E-06   -0.21399E-09   424   0.333E-04    0.111E-05
DAV:  23    -0.274722606894E+01   -0.36857E-06   -0.26226E-09   456   0.359E-04    0.122E-05
DAV:  24    -0.274722635902E+01   -0.29008E-06   -0.17612E-09   424   0.363E-04    0.107E-05
DAV:  25    -0.274722651096E+01   -0.15194E-06   -0.98285E-10   392   0.288E-04    0.109E-05
DAV:  26    -0.274722662596E+01   -0.11500E-06   -0.21782E-09   432   0.386E-04    0.101E-05
DAV:  27    -0.274722662338E+01    0.25789E-08   -0.14232E-09   432   0.308E-04
   7 F= -.27472266E+01 E0= -.27472266E+01  d E =-.498375E-02  mag=    -0.0000
       N       E                     dE             d eps       ncg     rms          rms(c)
DAV:   1    -0.274733260851E+01   -0.10598E-03   -0.48126E-03   640   0.214E-01    0.476E-02
DAV:   2    -0.274683709509E+01    0.49551E-03   -0.22802E-04   656   0.544E-02    0.267E-02
DAV:   3    -0.274706437028E+01   -0.22728E-03   -0.22879E-05   640   0.148E-02    0.122E-02
DAV:   4    -0.274729790071E+01   -0.23353E-03   -0.33590E-06   656   0.602E-03    0.713E-03
DAV:   5    -0.274744433174E+01   -0.14643E-03   -0.37338E-06   656   0.572E-03    0.385E-03
DAV:   6    -0.274740247270E+01    0.41859E-04   -0.25164E-07   576   0.213E-03    0.151E-03
DAV:   7    -0.274739309318E+01    0.93795E-05   -0.13160E-07   512   0.168E-03    0.356E-04
DAV:   8    -0.274739337896E+01   -0.28578E-06   -0.32745E-08   448   0.109E-03    0.342E-04
DAV:   9    -0.274738006438E+01    0.13315E-04   -0.34633E-08   464   0.104E-03    0.895E-05
DAV:  10    -0.274738075400E+01   -0.68962E-06   -0.17007E-08   448   0.840E-04    0.556E-05
DAV:  11    -0.274737872475E+01    0.20293E-05   -0.88402E-09   448   0.612E-04    0.538E-05
DAV:  12    -0.274737219019E+01    0.65346E-05   -0.28114E-08   464   0.980E-04    0.968E-05
DAV:  13    -0.274737077235E+01    0.14178E-05   -0.26346E-08   464   0.927E-04    0.746E-05
DAV:  14    -0.274737269092E+01   -0.19186E-05   -0.28444E-08   464   0.909E-04    0.207E-05
DAV:  15    -0.274737399888E+01   -0.13080E-05   -0.24040E-08   456   0.852E-04    0.381E-05
DAV:  16    -0.274737368636E+01    0.31252E-06   -0.89149E-09   464   0.592E-04    0.289E-05
DAV:  17    -0.274737299447E+01    0.69190E-06   -0.45064E-09   448   0.445E-04    0.149E-05
DAV:  18    -0.274737286291E+01    0.13155E-06   -0.61037E-09   448   0.512E-04    0.134E-05
DAV:  19    -0.274737275971E+01    0.10320E-06   -0.67889E-09   448   0.539E-04    0.120E-05
DAV:  20    -0.274737251242E+01    0.24729E-06   -0.30072E-09   440   0.399E-04    0.102E-05
DAV:  21    -0.274737239102E+01    0.12141E-06   -0.21152E-09   424   0.348E-04    0.101E-05
DAV:  22    -0.274737243544E+01   -0.44425E-07    0.36475E-11   400   0.224E-04
   8 F= -.27473724E+01 E0= -.27473724E+01  d E =-.512956E-02  mag=     0.0000
       N       E                     dE             d eps       ncg     rms          rms(c)
DAV:   1    -0.274921409828E+01   -0.18417E-02   -0.20315E-01   640   0.139E+00    0.112E-01
DAV:   2    -0.275064841106E+01   -0.14343E-02   -0.83878E-03   640   0.330E-01    0.580E-02
DAV:   3    -0.275040135962E+01    0.24705E-03   -0.11829E-04   736   0.527E-02    0.431E-02
DAV:   4    -0.274987026154E+01    0.53110E-03   -0.16579E-05   656   0.151E-02    0.191E-02
DAV:   5    -0.274960545152E+01    0.26481E-03   -0.71494E-06   704   0.885E-03    0.467E-03
DAV:   6    -0.274955873772E+01    0.46714E-04   -0.65310E-07   640   0.325E-03    0.390E-03
DAV:   7    -0.274956465648E+01   -0.59188E-05   -0.12093E-07   512   0.201E-03    0.127E-03
DAV:   8    -0.274956556343E+01   -0.90695E-06   -0.70519E-08   472   0.152E-03    0.574E-04
DAV:   9    -0.274956522909E+01    0.33434E-06   -0.21338E-08   512   0.935E-04    0.346E-04
DAV:  10    -0.274956720147E+01   -0.19724E-05   -0.23848E-08   448   0.942E-04    0.176E-04
DAV:  11    -0.274957493728E+01   -0.77358E-05   -0.14562E-07   560   0.165E-03    0.340E-04
DAV:  12    -0.274957495444E+01   -0.17164E-07   -0.11022E-08   504   0.696E-04
   9 F= -.27495750E+01 E0= -.27495750E+01  d E =-.220252E-02  mag=     0.0000
       N       E                     dE             d eps       ncg     rms          rms(c)
DAV:   1    -0.274840164028E+01    0.11733E-02   -0.18304E+00   688   0.418E+00    0.358E-01
DAV:   2    -0.275689995714E+01   -0.84983E-02   -0.78356E-02   640   0.996E-01    0.171E-01
DAV:   3    -0.275616053554E+01    0.73942E-03   -0.10922E-03   816   0.159E-01    0.127E-01
DAV:   4    -0.275468816470E+01    0.14724E-02   -0.15446E-04   744   0.454E-02    0.566E-02
DAV:   5    -0.275399732203E+01    0.69084E-03   -0.58518E-05   712   0.239E-02    0.142E-02
DAV:   6    -0.275387528621E+01    0.12204E-03   -0.51194E-06   640   0.861E-03    0.117E-02
DAV:   7    -0.275390081634E+01   -0.25530E-04   -0.20338E-06   672   0.662E-03    0.359E-03
DAV:   8    -0.275389320218E+01    0.76142E-05   -0.14008E-06   576   0.630E-03    0.293E-03
DAV:   9    -0.275388873114E+01    0.44710E-05   -0.34083E-07   640   0.329E-03    0.103E-03
DAV:  10    -0.275390125895E+01   -0.12528E-04   -0.45747E-07   576   0.351E-03    0.685E-04
DAV:  11    -0.275392243548E+01   -0.21177E-04   -0.65673E-07   624   0.391E-03    0.786E-04
DAV:  12    -0.275392863334E+01   -0.61979E-05   -0.37076E-07   576   0.303E-03    0.549E-04
DAV:  13    -0.275394424276E+01   -0.15609E-04   -0.14654E-06   576   0.497E-03    0.268E-04
DAV:  14    -0.275394521363E+01   -0.97087E-06   -0.38445E-07   576   0.291E-03    0.336E-04
DAV:  15    -0.275394778022E+01   -0.25666E-05   -0.16859E-07   568   0.210E-03    0.769E-05
DAV:  16    -0.275395110385E+01   -0.33236E-05   -0.14971E-07   552   0.199E-03    0.146E-04
DAV:  17    -0.275395223179E+01   -0.11279E-05   -0.56107E-08   512   0.143E-03    0.791E-05
DAV:  18    -0.275395429716E+01   -0.20654E-05   -0.59560E-08   488   0.128E-03    0.502E-05
DAV:  19    -0.275395641072E+01   -0.21136E-05   -0.46259E-08   496   0.127E-03    0.322E-05
DAV:  20    -0.275395716853E+01   -0.75781E-06   -0.34668E-08   480   0.102E-03    0.186E-05
DAV:  21    -0.275395743554E+01   -0.26701E-06   -0.13467E-08   448   0.703E-04    0.118E-05
DAV:  22    -0.275395766253E+01   -0.22699E-06   -0.96522E-09   448   0.641E-04    0.127E-05
DAV:  23    -0.275395788690E+01   -0.22437E-06   -0.62396E-09   448   0.524E-04    0.112E-05
DAV:  24    -0.275395793515E+01   -0.48249E-07   -0.60498E-09   448   0.523E-04
  10 F= -.27539579E+01 E0= -.27539579E+01  d E =-.658550E-02  mag=    -0.0000
       N       E                     dE             d eps       ncg     rms          rms(c)
DAV:   1    -0.272891951510E+01    0.25038E-01   -0.73314E+00   640   0.836E+00    0.787E-01
DAV:   2    -0.275773684161E+01   -0.28817E-01   -0.30772E-01   640   0.199E+00    0.339E-01
DAV:   3    -0.275616174506E+01    0.15751E-02   -0.43128E-03   848   0.317E-01    0.255E-01
DAV:   4    -0.275360294202E+01    0.25588E-02   -0.59314E-04   752   0.896E-02    0.113E-01
DAV:   5    -0.275254105779E+01    0.10619E-02   -0.20981E-04   736   0.447E-02    0.278E-02
DAV:   6    -0.275237928164E+01    0.16178E-03   -0.15987E-05   656   0.141E-02    0.230E-02
DAV:   7    -0.275241605531E+01   -0.36774E-04   -0.32985E-06   672   0.877E-03    0.786E-03
DAV:   8    -0.275235121923E+01    0.64836E-04   -0.19555E-06   640   0.768E-03    0.739E-03
DAV:   9    -0.275234709623E+01    0.41230E-05   -0.94709E-07   592   0.555E-03    0.163E-03
DAV:  10    -0.275239462168E+01   -0.47525E-04   -0.10026E-06   600   0.512E-03    0.101E-03
DAV:  11    -0.275242044181E+01   -0.25820E-04   -0.76125E-07   576   0.444E-03    0.123E-03
DAV:  12    -0.275242996356E+01   -0.95218E-05   -0.94959E-07   576   0.477E-03    0.571E-04
DAV:  13    -0.275243684044E+01   -0.68769E-05   -0.16590E-06   576   0.549E-03    0.701E-04
DAV:  14    -0.275243598247E+01    0.85797E-06   -0.50134E-07   576   0.353E-03    0.543E-04
DAV:  15    -0.275244434168E+01   -0.83592E-05   -0.57052E-07   608   0.367E-03    0.329E-04
DAV:  16    -0.275244690943E+01   -0.25677E-05   -0.34114E-07   576   0.299E-03    0.199E-04
DAV:  17    -0.275244753293E+01   -0.62351E-06   -0.58085E-08   576   0.143E-03    0.489E-05
DAV:  18    -0.275245221380E+01   -0.46809E-05   -0.23710E-07   576   0.231E-03    0.460E-05
DAV:  19    -0.275245613156E+01   -0.39178E-05   -0.17863E-07   600   0.220E-03    0.240E-05
DAV:  20    -0.275245675916E+01   -0.62759E-06   -0.20224E-08   528   0.904E-04    0.159E-05
DAV:  21    -0.275245796312E+01   -0.12040E-05   -0.27217E-08   472   0.944E-04    0.124E-05
DAV:  22    -0.275245807215E+01   -0.10903E-06   -0.19414E-08   480   0.795E-04    0.138E-05
DAV:  23    -0.275245810460E+01   -0.32445E-07   -0.24474E-08   496   0.953E-04
  11 F= -.27524581E+01 E0= -.27524581E+01  d E =-.508567E-02  mag=     0.0000
       N       E                     dE             d eps       ncg     rms          rms(c)
DAV:   1    -0.274849139302E+01    0.39667E-02   -0.15421E+00   640   0.383E+00    0.301E-01
DAV:   2    -0.275139073882E+01   -0.28993E-02   -0.64002E-02   640   0.910E-01    0.173E-01
DAV:   3    -0.275198073847E+01   -0.59000E-03   -0.89286E-04   800   0.144E-01    0.132E-01
DAV:   4    -0.275370114337E+01   -0.17204E-02   -0.12138E-04   704   0.398E-02    0.582E-02
DAV:   5    -0.275473707614E+01   -0.10359E-02   -0.60034E-05   720   0.241E-02    0.131E-02
DAV:   6    -0.275488407590E+01   -0.14700E-03   -0.53969E-06   640   0.763E-03    0.111E-02
DAV:   7    -0.275490625809E+01   -0.22182E-04   -0.58229E-07   704   0.356E-03    0.618E-03
DAV:   8    -0.275484034843E+01    0.65910E-04   -0.46337E-07   640   0.315E-03    0.104E-03
DAV:   9    -0.275484406275E+01   -0.37143E-05   -0.11943E-07   536   0.190E-03    0.757E-04
DAV:  10    -0.275484910241E+01   -0.50397E-05   -0.32037E-07   576   0.267E-03    0.815E-04
DAV:  11    -0.275484498256E+01    0.41199E-05   -0.15338E-07   560   0.190E-03    0.929E-04
DAV:  12    -0.275483950856E+01    0.54740E-05   -0.55897E-08   488   0.145E-03    0.413E-04
DAV:  13    -0.275482739548E+01    0.12113E-04   -0.10182E-06   576   0.454E-03    0.390E-04
DAV:  14    -0.275482737134E+01    0.24139E-07   -0.12348E-07   592   0.194E-03
  12 F= -.27548274E+01 E0= -.27548274E+01  d E =-.745494E-02  mag=     0.0000
       N       E                     dE             d eps       ncg     rms          rms(c)
DAV:   1    -0.275578055837E+01   -0.95316E-03   -0.27479E-01   640   0.163E+00    0.252E-01
DAV:   2    -0.275278369354E+01    0.29969E-02   -0.12880E-02   640   0.401E-01    0.157E-01
DAV:   3    -0.275358753067E+01   -0.80384E-03   -0.55504E-04   720   0.834E-02    0.930E-02
DAV:   4    -0.275499236337E+01   -0.14048E-02   -0.12964E-04   720   0.345E-02    0.432E-02
DAV:   5    -0.275603865397E+01   -0.10463E-02   -0.11975E-04   656   0.317E-02    0.223E-02
DAV:   6    -0.275580554421E+01    0.23311E-03   -0.84512E-06   688   0.125E-02    0.895E-03
DAV:   7    -0.275582482652E+01   -0.19282E-04   -0.55512E-06   640   0.892E-03    0.453E-03
DAV:   8    -0.275572268448E+01    0.10214E-03   -0.79073E-07   640   0.446E-03    0.130E-03
DAV:   9    -0.275569919994E+01    0.23485E-04   -0.42969E-07   576   0.385E-03    0.596E-04
DAV:  10    -0.275567726981E+01    0.21930E-04   -0.49001E-07   608   0.392E-03    0.328E-04
DAV:  11    -0.275567549093E+01    0.17789E-05   -0.26988E-07   576   0.314E-03    0.201E-04
DAV:  12    -0.275567348061E+01    0.20103E-05   -0.58381E-07   576   0.396E-03    0.131E-04
DAV:  13    -0.275566831468E+01    0.51659E-05   -0.91546E-07   576   0.494E-03    0.230E-04
DAV:  14    -0.275567556843E+01   -0.72538E-05   -0.35651E-07   576   0.317E-03    0.807E-05
DAV:  15    -0.275567374395E+01    0.18245E-05   -0.22602E-07   640   0.259E-03    0.697E-05
DAV:  16    -0.275567402008E+01   -0.27613E-06   -0.21937E-07   608   0.263E-03    0.427E-05
DAV:  17    -0.275567574276E+01   -0.17227E-05   -0.18390E-07   632   0.225E-03    0.314E-05
DAV:  18    -0.275567635433E+01   -0.61157E-06   -0.95067E-08   576   0.172E-03    0.149E-05
DAV:  19    -0.275567722727E+01   -0.87294E-06   -0.91756E-08   568   0.174E-03    0.123E-05
DAV:  20    -0.275567779154E+01   -0.56427E-06   -0.33185E-08   528   0.108E-03    0.105E-05
DAV:  21    -0.275567821879E+01   -0.42725E-06   -0.23765E-08   512   0.887E-04    0.112E-05
DAV:  22    -0.275567815977E+01    0.59020E-07   -0.18213E-08   496   0.790E-04
  13 F= -.27556782E+01 E0= -.27556782E+01  d E =-.850788E-03  mag=    -0.0000
       N       E                     dE             d eps       ncg     rms          rms(c)
DAV:   1    -0.275567891420E+01   -0.69540E-06   -0.57788E-05   664   0.236E-02    0.369E-03
DAV:   2    -0.275571901693E+01   -0.40103E-04   -0.27731E-06   656   0.615E-03    0.224E-03
DAV:   3    -0.275570383218E+01    0.15185E-04   -0.18075E-07   536   0.217E-03    0.132E-03
DAV:   4    -0.275567865413E+01    0.25178E-04   -0.91279E-08   464   0.167E-03    0.543E-04
DAV:   5    -0.275566474176E+01    0.13912E-04   -0.71027E-08   464   0.148E-03    0.296E-04
DAV:   6    -0.275566501547E+01   -0.27371E-06   -0.40138E-08   472   0.126E-03    0.211E-04
DAV:   7    -0.275566701565E+01   -0.20002E-05   -0.26498E-08   456   0.101E-03    0.743E-05
DAV:   8    -0.275566847815E+01   -0.14625E-05   -0.27514E-08   456   0.105E-03    0.300E-05
DAV:   9    -0.275566941246E+01   -0.93431E-06   -0.25652E-08   456   0.102E-03    0.312E-05
DAV:  10    -0.275567166727E+01   -0.22548E-05   -0.20685E-08   448   0.928E-04    0.232E-05
DAV:  11    -0.275567126216E+01    0.40511E-06   -0.22619E-08   448   0.870E-04    0.186E-05
DAV:  12    -0.275567147355E+01   -0.21140E-06   -0.25880E-09   448   0.330E-04    0.191E-05
DAV:  13    -0.275567134173E+01    0.13183E-06   -0.31405E-08   456   0.113E-03    0.278E-05
DAV:  14    -0.275567175550E+01   -0.41378E-06   -0.28294E-08   456   0.107E-03    0.190E-05
DAV:  15    -0.275567361921E+01   -0.18637E-05   -0.50917E-08   472   0.139E-03    0.429E-05
DAV:  16    -0.275567328091E+01    0.33831E-06   -0.28656E-08   488   0.979E-04    0.312E-05
DAV:  17    -0.275567320028E+01    0.80631E-07   -0.11358E-08   472   0.630E-04
  14 F= -.27556732E+01 E0= -.27556732E+01  d E =-.845829E-03  mag=     0.0000
       N       E                     dE             d eps       ncg     rms          rms(c)
DAV:   1    -0.275567453538E+01   -0.12545E-05   -0.44784E-04   640   0.657E-02    0.103E-02
DAV:   2    -0.275578577149E+01   -0.11124E-03   -0.21134E-05   688   0.165E-02    0.623E-03
DAV:   3    -0.275574309930E+01    0.42672E-04   -0.10782E-06   656   0.433E-03    0.364E-03
DAV:   4    -0.275568346704E+01    0.59632E-04   -0.27949E-07   608   0.235E-03    0.179E-03
DAV:   5    -0.275562472541E+01    0.58742E-04   -0.36963E-07   608   0.265E-03    0.106E-03
DAV:   6    -0.275563080853E+01   -0.60831E-05   -0.50519E-08   464   0.138E-03    0.911E-04
DAV:   7    -0.275563993036E+01   -0.91218E-05   -0.51323E-08   464   0.139E-03    0.530E-04
DAV:   8    -0.275565129884E+01   -0.11368E-04   -0.74890E-08   488   0.150E-03    0.114E-04
DAV:   9    -0.275565172296E+01   -0.42412E-06   -0.56429E-08   472   0.143E-03    0.914E-05
DAV:  10    -0.275565214456E+01   -0.42160E-06   -0.30687E-08   456   0.943E-04    0.872E-05
DAV:  11    -0.275565044619E+01    0.16984E-05   -0.48030E-08   464   0.116E-03    0.129E-04
DAV:  12    -0.275565547991E+01   -0.50337E-05   -0.68823E-08   480   0.150E-03    0.305E-05
DAV:  13    -0.275565577796E+01   -0.29805E-06   -0.53963E-08   520   0.126E-03    0.266E-05
DAV:  14    -0.275565578590E+01   -0.79440E-08   -0.27793E-08   488   0.996E-04
  15 F= -.27556558E+01 E0= -.27556558E+01  d E =-.828415E-03  mag=    -0.0000
       N       E                     dE             d eps       ncg     rms          rms(c)
DAV:   1    -0.275581157093E+01   -0.15579E-03   -0.90778E-03   640   0.292E-01    0.529E-02
DAV:   2    -0.275628432773E+01   -0.47276E-03   -0.38912E-04   688   0.701E-02    0.321E-02
DAV:   3    -0.275607156573E+01    0.21276E-03   -0.21350E-05   688   0.159E-02    0.190E-02
DAV:   4    -0.275584012655E+01    0.23144E-03   -0.76922E-06   704   0.877E-03    0.926E-03
DAV:   5    -0.275571852613E+01    0.12160E-03   -0.55020E-06   696   0.734E-03    0.533E-03
DAV:   6    -0.275576201662E+01   -0.43490E-04   -0.54576E-07   720   0.332E-03    0.174E-03
DAV:   7    -0.275577726447E+01   -0.15248E-04   -0.14984E-07   584   0.205E-03    0.494E-04
DAV:   8    -0.275578396445E+01   -0.67000E-05   -0.14531E-07   576   0.204E-03    0.318E-04
DAV:   9    -0.275579314007E+01   -0.91756E-05   -0.16922E-07   624   0.214E-03    0.996E-05
DAV:  10    -0.275579586476E+01   -0.27247E-05   -0.72348E-08   536   0.152E-03    0.638E-05
DAV:  11    -0.275579617212E+01   -0.30736E-06   -0.25956E-08   520   0.948E-04    0.519E-05
DAV:  12    -0.275579873859E+01   -0.25665E-05   -0.20127E-08   464   0.856E-04    0.288E-05
DAV:  13    -0.275580041904E+01   -0.16804E-05   -0.40558E-08   480   0.114E-03    0.446E-05
DAV:  14    -0.275579960859E+01    0.81044E-06   -0.21522E-08   472   0.949E-04    0.121E-05
DAV:  15    -0.275580027073E+01   -0.66214E-06   -0.55881E-08   472   0.133E-03    0.126E-05
DAV:  16    -0.275580020012E+01    0.70607E-07   -0.42744E-08   528   0.128E-03
  16 F= -.27558002E+01 E0= -.27558002E+01  d E =-.144414E-03  mag=    -0.0000
       N       E                     dE             d eps       ncg     rms          rms(c)
DAV:   1    -0.275650311667E+01   -0.70285E-03   -0.81815E-02   672   0.876E-01    0.159E-01
DAV:   2    -0.275772662141E+01   -0.12235E-02   -0.35106E-03   656   0.210E-01    0.961E-02
DAV:   3    -0.275700396776E+01    0.72265E-03   -0.19233E-04   736   0.469E-02    0.568E-02
DAV:   4    -0.275627939240E+01    0.72458E-03   -0.67686E-05   720   0.246E-02    0.279E-02
DAV:   5    -0.275591004729E+01    0.36935E-03   -0.47190E-05   704   0.200E-02    0.159E-02
DAV:   6    -0.275603596924E+01   -0.12592E-03   -0.44499E-06   752   0.828E-03    0.544E-03
DAV:   7    -0.275608521642E+01   -0.49247E-04   -0.81471E-07   704   0.417E-03    0.171E-03
DAV:   8    -0.275612183966E+01   -0.36623E-04   -0.17712E-07   592   0.244E-03    0.689E-04
DAV:   9    -0.275613646847E+01   -0.14629E-04   -0.12983E-07   584   0.216E-03    0.356E-04
DAV:  10    -0.275614437204E+01   -0.79036E-05   -0.72828E-08   544   0.163E-03    0.245E-04
DAV:  11    -0.275614840675E+01   -0.40347E-05   -0.38222E-08   512   0.122E-03    0.104E-04
DAV:  12    -0.275615250508E+01   -0.40983E-05   -0.50133E-08   496   0.131E-03    0.147E-04
DAV:  13    -0.275615253774E+01   -0.32655E-07   -0.55399E-08   544   0.137E-03
  17 F= -.27561525E+01 E0= -.27561525E+01  d E =-.496752E-03  mag=    -0.0000
       N       E                     dE             d eps       ncg     rms          rms(c)
DAV:   1    -0.275813643968E+01   -0.19839E-02   -0.32780E-01   704   0.175E+00    0.320E-01
DAV:   2    -0.275999848426E+01   -0.18620E-02   -0.14135E-02   704   0.420E-01    0.191E-01
DAV:   3    -0.275828950872E+01    0.17090E-02   -0.77485E-04   736   0.936E-02    0.113E-01
DAV:   4    -0.275675442546E+01    0.15351E-02   -0.26996E-04   672   0.487E-02    0.560E-02
DAV:   5    -0.275600677804E+01    0.74765E-03   -0.18358E-04   704   0.388E-02    0.317E-02
DAV:   6    -0.275625213968E+01   -0.24536E-03   -0.16923E-05   800   0.150E-02    0.108E-02
DAV:   7    -0.275635939751E+01   -0.10726E-03   -0.22201E-06   672   0.618E-03    0.301E-03
DAV:   8    -0.275641681271E+01   -0.57415E-04   -0.39983E-07   608   0.341E-03    0.150E-03
DAV:   9    -0.275644860032E+01   -0.31788E-04   -0.15263E-07   592   0.237E-03    0.795E-04
DAV:  10    -0.275647066767E+01   -0.22067E-04   -0.11157E-07   560   0.206E-03    0.471E-04
DAV:  11    -0.275647474193E+01   -0.40743E-05   -0.35744E-08   512   0.129E-03    0.200E-04
DAV:  12    -0.275648760531E+01   -0.12863E-04   -0.12496E-07   576   0.178E-03    0.366E-04
DAV:  13    -0.275648514423E+01    0.24611E-05   -0.59057E-08   528   0.150E-03    0.174E-04
DAV:  14    -0.275648588814E+01   -0.74391E-06   -0.10260E-07   552   0.187E-03    0.515E-05
DAV:  15    -0.275648718112E+01   -0.12930E-05   -0.21682E-07   608   0.249E-03    0.434E-05
DAV:  16    -0.275648613049E+01    0.10506E-05   -0.15047E-07   568   0.215E-03    0.476E-05
DAV:  17    -0.275648538807E+01    0.74242E-06   -0.16174E-07   592   0.223E-03    0.324E-05
DAV:  18    -0.275648434222E+01    0.10458E-05   -0.94663E-08   560   0.185E-03    0.210E-05
DAV:  19    -0.275648374288E+01    0.59934E-06   -0.47257E-08   512   0.137E-03    0.199E-05
DAV:  20    -0.275648357915E+01    0.16373E-06   -0.46861E-08   464   0.134E-03    0.123E-05
DAV:  21    -0.275648320946E+01    0.36969E-06   -0.54152E-08   496   0.141E-03    0.105E-05
DAV:  22    -0.275648317472E+01    0.34737E-07   -0.18095E-08   480   0.835E-04
  18 F= -.27564832E+01 E0= -.27564832E+01  d E =-.827389E-03  mag=    -0.0000
       N       E                     dE             d eps       ncg     rms          rms(c)
DAV:   1    -0.275671148655E+01   -0.22828E-03   -0.34738E-02   640   0.570E-01    0.103E-01
DAV:   2    -0.275560205084E+01    0.11094E-02   -0.14857E-03   656   0.137E-01    0.633E-02
DAV:   3    -0.275593563383E+01   -0.33358E-03   -0.81233E-05   672   0.306E-02    0.376E-02
DAV:   4    -0.275635624958E+01   -0.42062E-03   -0.29574E-05   736   0.164E-02    0.181E-02
DAV:   5    -0.275659165876E+01   -0.23541E-03   -0.20518E-05   672   0.132E-02    0.105E-02
DAV:   6    -0.275650634790E+01    0.85311E-04   -0.18713E-06   752   0.551E-03    0.350E-03
DAV:   7    -0.275647654730E+01    0.29801E-04   -0.44117E-07   640   0.317E-03    0.101E-03
DAV:   8    -0.275646334442E+01    0.13203E-04   -0.14633E-07   568   0.230E-03    0.615E-04
DAV:   9    -0.275644061672E+01    0.22728E-04   -0.13537E-07   528   0.215E-03    0.217E-04
DAV:  10    -0.275644223857E+01   -0.16219E-05   -0.89050E-08   552   0.181E-03    0.204E-04
DAV:  11    -0.275643828257E+01    0.39560E-05   -0.66295E-08   512   0.153E-03    0.131E-04
DAV:  12    -0.275642678703E+01    0.11496E-04   -0.73911E-08   504   0.149E-03    0.228E-04
DAV:  13    -0.275642833079E+01   -0.15438E-05   -0.58078E-08   472   0.151E-03    0.120E-04
DAV:  14    -0.275642902211E+01   -0.69131E-06   -0.70979E-08   480   0.160E-03    0.363E-05
DAV:  15    -0.275642963745E+01   -0.61535E-06   -0.78491E-08   480   0.162E-03    0.311E-05
DAV:  16    -0.275642989945E+01   -0.26200E-06   -0.70746E-08   480   0.153E-03    0.257E-05
DAV:  17    -0.275643034190E+01   -0.44245E-06   -0.57541E-08   472   0.150E-03    0.244E-05
DAV:  18    -0.275643061652E+01   -0.27462E-06   -0.62716E-08   480   0.147E-03    0.132E-05
DAV:  19    -0.275643061455E+01    0.19709E-08   -0.26547E-08   464   0.101E-03
  19 F= -.27564306E+01 E0= -.27564306E+01  d E =-.774829E-03  mag=    -0.0000
       N       E                     dE             d eps       ncg     rms          rms(c)
DAV:   1    -0.275646278556E+01   -0.32169E-04   -0.15720E-03   640   0.120E-01    0.424E-02
DAV:   2    -0.275608118689E+01    0.38160E-03   -0.82465E-05   680   0.338E-02    0.193E-02
DAV:   3    -0.275630866075E+01   -0.22747E-03   -0.19101E-05   656   0.126E-02    0.679E-03
DAV:   4    -0.275647639836E+01   -0.16774E-03   -0.12467E-06   736   0.468E-03    0.535E-03
DAV:   5    -0.275657791571E+01   -0.10152E-03   -0.23538E-06   640   0.505E-03    0.215E-03
DAV:   6    -0.275656726876E+01    0.10647E-04   -0.26567E-07   600   0.257E-03    0.922E-04
DAV:   7    -0.275656049027E+01    0.67785E-05   -0.56639E-08   464   0.163E-03    0.576E-04
DAV:   8    -0.275655292901E+01    0.75613E-05   -0.73009E-08   512   0.164E-03    0.240E-04
DAV:   9    -0.275655122226E+01    0.17067E-05   -0.33199E-08   512   0.121E-03    0.113E-04
DAV:  10    -0.275654691737E+01    0.43049E-05   -0.45567E-08   464   0.121E-03    0.576E-05
DAV:  11    -0.275654559409E+01    0.13233E-05   -0.50784E-08   464   0.129E-03    0.396E-05
DAV:  12    -0.275654422131E+01    0.13728E-05   -0.51219E-08   472   0.135E-03    0.284E-05
DAV:  13    -0.275654247428E+01    0.17470E-05   -0.55438E-08   472   0.148E-03    0.224E-05
DAV:  14    -0.275654324671E+01   -0.77243E-06   -0.33465E-08   512   0.110E-03    0.213E-05
DAV:  15    -0.275654284315E+01    0.40356E-06   -0.40189E-08   464   0.124E-03    0.109E-05
DAV:  16    -0.275654294801E+01   -0.10486E-06   -0.56621E-08   472   0.143E-03    0.105E-05
DAV:  17    -0.275654311332E+01   -0.16532E-06   -0.43614E-08   464   0.131E-03    0.103E-05
DAV:  18    -0.275654316647E+01   -0.53150E-07   -0.25831E-08   504   0.941E-04
  20 F= -.27565432E+01 E0= -.27565432E+01  d E =-.112552E-03  mag=    -0.0000
       N       E                     dE             d eps       ncg     rms          rms(c)
DAV:   1    -0.275657023948E+01   -0.27126E-04   -0.82328E-04   640   0.869E-02    0.307E-02
DAV:   2    -0.275681096121E+01   -0.24072E-03   -0.43206E-05   664   0.245E-02    0.140E-02
DAV:   3    -0.275663561061E+01    0.17535E-03   -0.10044E-05   672   0.933E-03    0.492E-03
DAV:   4    -0.275651305807E+01    0.12255E-03   -0.66528E-07   720   0.359E-03    0.384E-03
DAV:   5    -0.275643246480E+01    0.80593E-04   -0.13599E-06   672   0.406E-03    0.162E-03
DAV:   6    -0.275644434810E+01   -0.11883E-04   -0.14659E-07   528   0.219E-03    0.665E-04
DAV:   7    -0.275645027927E+01   -0.59312E-05   -0.75242E-08   496   0.172E-03    0.359E-04
DAV:   8    -0.275645478020E+01   -0.45009E-05   -0.52807E-08   464   0.146E-03    0.140E-04
DAV:   9    -0.275645655981E+01   -0.17796E-05   -0.31890E-08   496   0.115E-03    0.104E-04
DAV:  10    -0.275646241829E+01   -0.58585E-05   -0.21953E-08   456   0.947E-04    0.736E-05
DAV:  11    -0.275646155367E+01    0.86462E-06   -0.29869E-08   488   0.102E-03    0.387E-05
DAV:  12    -0.275646293430E+01   -0.13806E-05   -0.27163E-08   464   0.991E-04    0.302E-05
DAV:  13    -0.275646459074E+01   -0.16564E-05   -0.45204E-08   528   0.136E-03    0.197E-05
DAV:  14    -0.275646387169E+01    0.71906E-06   -0.42903E-08   472   0.121E-03    0.199E-05
DAV:  15    -0.275646476456E+01   -0.89287E-06   -0.61155E-08   480   0.148E-03    0.118E-05
DAV:  16    -0.275646441998E+01    0.34458E-06   -0.49061E-08   496   0.121E-03    0.109E-05
DAV:  17    -0.275646456174E+01   -0.14176E-06   -0.31658E-08   480   0.109E-03    0.104E-05
DAV:  18    -0.275646456257E+01   -0.83173E-09   -0.17346E-08   464   0.735E-04
  21 F= -.27564646E+01 E0= -.27564646E+01  d E =-.339480E-04  mag=    -0.0000
