 vasp.5.4.1 24Jun15 (build Dec 08 2016 12:24:04) complex                        
  
 executed on           IFC91_ompi date 2018.04.12  04:12:40
 running on   32 total cores
 distrk:  each k-point on   32 cores,    1 groups
 distr:  one band on NCORES_PER_BAND=   4 cores,    8 groups


--------------------------------------------------------------------------------------------------------


 INCAR:
 POTCAR:    PAW_PBE Bi 08Apr2002                  
 POTCAR:    PAW_PBE I 08Apr2002                   

 ----------------------------------------------------------------------------- 
|                                                                             |
|  ADVICE TO THIS USER RUNNING 'VASP/VAMP'   (HEAR YOUR MASTER'S VOICE ...):  |
|                                                                             |
|      You have switched on vdW-DFT.                                          |
|      This routine was written and supplied by Jiri Klimes.                  |
|      We recommed that you carefully read and cite the following             |
|      publication                                                            |
|      J. Klimes, D.R. Bowler, A. Michelides                                  |
|        J. Phys.: Cond Matt. 22 022201 (2010)                                |
|      J. Klimes, D.R. Bowler, A. Michelides                                  |
|        Phys. Rev. B. 83, 195131 (2011)                                      |
|      and references therein.                                                |
|                                                                             |
 ----------------------------------------------------------------------------- 

 POTCAR:    PAW_PBE Bi 08Apr2002                  
   VRHFIN =Bi:                                                                  
   LEXCH  = PE                                                                  
   EATOM  =   150.8133 eV,   11.0845 Ry                                         
                                                                                
   TITEL  = PAW_PBE Bi 08Apr2002                                                
   LULTRA =        F    use ultrasoft PP ?                                      
   IUNSCR =        1    unscreen: 0-lin 1-nonlin 2-no                           
   RPACOR =    2.200    partial core radius                                     
   POMASS =  208.980; ZVAL   =    5.000    mass and valenz                      
   RCORE  =    3.000    outmost cutoff radius                                   
   RWIGS  =    3.090; RWIGS  =    1.635    wigner-seitz radius (au A)           
   ENMAX  =  105.037; ENMIN  =   78.777 eV                                      
   ICORE  =        3    local potential                                         
   LCOR   =        T    correct aug charges                                     
   LPAW   =        T    paw PP                                                  
   EAUG   =  265.427                                                            
   DEXC   =    0.000                                                            
   RMAX   =    3.067    core radius for proj-oper                               
   RAUG   =    1.300    factor for augmentation sphere                          
   RDEP   =    3.012    radius for radial grids                                 
   RDEPT  =    2.604    core radius for aug-charge                              
                                                                                
   Atomic configuration                                                         
   17 entries                                                                   
     n  l   j            E        occ.                                          
     1  0  0.50    -90639.6582   2.0000                                         
     2  0  0.50    -16282.4667   2.0000                                         
     2  1  1.50    -13922.8287   6.0000                                         
     3  0  0.50     -3930.4763   2.0000                                         
     3  1  1.50     -3256.7013   6.0000                                         
     3  2  2.50     -2581.6169  10.0000                                         
     4  0  0.50      -902.2614   2.0000                                         
     4  1  1.50      -681.5915   6.0000                                         
     4  2  2.50      -429.8249  10.0000                                         
     4  3  3.50      -152.6004  14.0000                                         
     5  0  0.50      -157.7156   2.0000                                         
     5  1  1.50       -95.8054   6.0000                                         
     5  2  2.50       -27.0806  10.0000                                         
     6  0  0.50       -14.4732   2.0000                                         
     6  1  1.50        -4.5702   3.0000                                         
     6  2  2.50        -2.7212   0.0000                                         
     5  3  2.50        -2.7212   0.0000                                         
   Description                                                                  
     l       E           TYP  RCUT    TYP  RCUT                                 
     0    -14.4732299     23  3.000                                             
     0    -12.2452434     23  3.000                                             
     1     -4.5701666     23  3.000                                             
     1    -13.6058260     23  3.000                                             
     2     -2.7211652     23  3.000                                             
     3     -1.3605826      7  3.000                                             
  local pseudopotential read in
  partial core-charges read in
  partial kinetic energy density read in
  kinetic energy density of atom read in
  atomic valenz-charges read in
  non local Contribution for L=           0  read in
    real space projection operators read in
  non local Contribution for L=           0  read in
    real space projection operators read in
  non local Contribution for L=           1  read in
    real space projection operators read in
  non local Contribution for L=           1  read in
    real space projection operators read in
  non local Contribution for L=           2  read in
    real space projection operators read in
    PAW grid and wavefunctions read in
 
   number of l-projection  operators is LMAX  =           5
   number of lm-projection operators is LMMAX =          13
 
 POTCAR:    PAW_PBE I 08Apr2002                   
   VRHFIN =I : s2p5                                                             
   LEXCH  = PE                                                                  
   EATOM  =   315.8678 eV,   23.2156 Ry                                         
                                                                                
   TITEL  = PAW_PBE I 08Apr2002                                                 
   LULTRA =        F    use ultrasoft PP ?                                      
   IUNSCR =        1    unscreen: 0-lin 1-nonlin 2-no                           
   RPACOR =    2.200    partial core radius                                     
   POMASS =  126.904; ZVAL   =    7.000    mass and valenz                      
   RCORE  =    2.300    outmost cutoff radius                                   
   RWIGS  =    2.810; RWIGS  =    1.487    wigner-seitz radius (au A)           
   ENMAX  =  175.647; ENMIN  =  131.735 eV                                      
   ICORE  =        3    local potential                                         
   LCOR   =        T    correct aug charges                                     
   LPAW   =        T    paw PP                                                  
   EAUG   =  370.139                                                            
   DEXC   =    0.000                                                            
   RMAX   =    2.359    core radius for proj-oper                               
   RAUG   =    1.300    factor for augmentation sphere                          
   RDEP   =    2.392    radius for radial grids                                 
   RDEPT  =    2.170    core radius for aug-charge                              
                                                                                
   Atomic configuration                                                         
   13 entries                                                                   
     n  l   j            E        occ.                                          
     1  0  0.50    -32976.3739   2.0000                                         
     2  0  0.50     -5094.5933   2.0000                                         
     2  1  1.50     -4572.0131   6.0000                                         
     3  0  0.50     -1028.2813   2.0000                                         
     3  1  1.50      -859.0250   6.0000                                         
     3  2  2.50      -605.7620  10.0000                                         
     4  0  0.50      -180.5540   2.0000                                         
     4  1  1.50      -127.5306   6.0000                                         
     4  2  2.50       -50.2720  10.0000                                         
     5  0  0.50       -17.4058   2.0000                                         
     5  1  0.50        -7.0851   5.0000                                         
     5  2  1.50        -7.0750   0.0000                                         
     4  3  2.50        -7.0750   0.0000                                         
   Description                                                                  
     l       E           TYP  RCUT    TYP  RCUT                                 
     0    -17.4058016     23  2.300                                             
     0    -18.7663842     23  2.300                                             
     1     -7.0850686     23  2.300                                             
     1     -4.2150896     23  2.300                                             
     2     -7.0750295     23  2.300                                             
     3     -1.3605826     23  2.300                                             
  local pseudopotential read in
  partial core-charges read in
  partial kinetic energy density read in
  atomic valenz-charges read in
  non local Contribution for L=           0  read in
    real space projection operators read in
  non local Contribution for L=           0  read in
    real space projection operators read in
  non local Contribution for L=           1  read in
    real space projection operators read in
  non local Contribution for L=           1  read in
    real space projection operators read in
  non local Contribution for L=           2  read in
    real space projection operators read in
    PAW grid and wavefunctions read in
 
   number of l-projection  operators is LMAX  =           5
   number of lm-projection operators is LMMAX =          13
 

 ----------------------------------------------------------------------------- 
|                                                                             |
|  ADVICE TO THIS USER RUNNING 'VASP/VAMP'   (HEAR YOUR MASTER'S VOICE ...):  |
|                                                                             |
|      You enforced a specific xc-type in the INCAR file,                     |
|      a different type was found on the POTCAR file                          |
|          I HOPE YOU KNOW, WHAT YOU ARE  DOING                               |
|                                                                             |
 ----------------------------------------------------------------------------- 

  PAW_PBE Bi 08Apr2002                  :
 energy of atom  1       EATOM= -150.8133
 kinetic energy error for atom=    0.0001 (will be added to EATOM!!)
  PAW_PBE I 08Apr2002                   :
 energy of atom  2       EATOM= -315.8678
 kinetic energy error for atom=    0.0009 (will be added to EATOM!!)
 
 
 POSCAR: Surf-mp-569157                          
  positions in direct lattice
  No initial velocities read in
 exchange correlation table for  LEXCH =       42
   RHO(1)=    0.500       N(1)  =     2000
   RHO(2)=  100.500       N(2)  =     4000
 


--------------------------------------------------------------------------------------------------------


 ion  position               nearest neighbor table
   1  0.667  0.333  0.077-   5 3.12   7 3.12   8 3.12   4 3.12   6 3.12   3 3.12
   2  0.333  0.667  0.077-   5 3.12   8 3.12   7 3.12   4 3.12   3 3.12   6 3.12
   3  0.000  0.355  0.000-   2 3.12   1 3.12
   4  0.645  0.645  0.000-   1 3.12   2 3.12
   5  0.355  0.355  0.154-   1 3.12   2 3.12
   6  0.355  0.000  0.000-   1 3.12   2 3.12
   7  0.000  0.645  0.154-   1 3.12   2 3.12
   8  0.645  0.000  0.154-   2 3.12   1 3.12
 
  LATTYP: Found a hexagonal cell.
 ALAT       =     7.8292280000
 C/A-ratio  =     3.0207070225
  
  Lattice vectors:
  
 A1 = (   3.9146140000,  -6.7803100000,   0.0000000000)
 A2 = (   3.9146140000,   6.7803100000,   0.0000000000)
 A3 = (   0.0000000000,   0.0000000000,  23.6498040000)


Analysis of symmetry for initial positions (statically):
=====================================================================
 Subroutine PRICEL returns:
 Original cell was already a primitive cell.
 

 Routine SETGRP: Setting up the symmetry group for a 
 hexagonal supercell.


 Subroutine GETGRP returns: Found 12 space group operations
 (whereof  6 operations were pure point group operations)
 out of a pool of 24 trial point group operations.


The static configuration has the point symmetry C_3v.
 The point group associated with its full space group is D_3d.


Analysis of symmetry for dynamics (positions and initial velocities):
=====================================================================
 Subroutine PRICEL returns:
 Original cell was already a primitive cell.
 

 Routine SETGRP: Setting up the symmetry group for a 
 hexagonal supercell.


 Subroutine GETGRP returns: Found 12 space group operations
 (whereof  6 operations were pure point group operations)
 out of a pool of 24 trial point group operations.


The dynamic configuration has the point symmetry C_3v.
 The point group associated with its full space group is D_3d.


Analysis of magnetic symmetry:
=====================================================================
 Subroutine PRICEL returns:
 Original cell was already a primitive cell.
 

 Subroutine MAGSYM returns: Found 12 space group operations
 (whereof  6 operations were pure point group operations)
 out of a pool of 12 trial space group operations
 (whereof  6 operations were pure point group operations)
 and found also     1 'primitive' translations


The magnetic configuration has the point symmetry C_3v.
 The point group associated with its full space group is D_3d.
 
 
 KPOINTS: Automatic kpoint scheme                 

Automatic generation of k-mesh.
Space group operators:
 irot       det(A)        alpha          n_x          n_y          n_z        tau_x        tau_y        tau_z
    1     1.000000     0.000000     1.000000     0.000000     0.000000     0.000000     0.000000     0.000000
    2     1.000000   120.000000     0.000000     0.000000    -1.000000     0.000000     0.000000     0.000000
    3     1.000000   120.000000     0.000000     0.000000     1.000000     0.000000     0.000000     0.000000
    4    -1.000000   180.000000     0.000000     1.000000     0.000000     0.000000     0.000000     0.000000
    5    -1.000000   180.000000     0.866025     0.500000     0.000000     0.000000     0.000000     0.000000
    6    -1.000000   180.000000     0.866025    -0.500000     0.000000     0.000000     0.000000     0.000000
    7    -1.000000     0.000000     1.000000     0.000000     0.000000     0.000000     0.000000     0.154328
    8    -1.000000   120.000000     0.000000     0.000000    -1.000000     0.000000     0.000002     0.154328
    9    -1.000000   120.000000     0.000000     0.000000     1.000000     0.000000     0.000000     0.154328
   10     1.000000   180.000000     0.000000     1.000000     0.000000     0.000000     0.000000     0.154328
   11     1.000000   180.000000     0.866025     0.500000     0.000000     0.000000     0.000000     0.154328
   12     1.000000   180.000000     0.866025    -0.500000     0.000000     0.000000     0.000002     0.154328
 
 Subroutine IBZKPT returns following result:
 ===========================================
 
 Found      4 irreducible k-points:
 
 Following reciprocal coordinates:
            Coordinates               Weight
  0.000000  0.000000  0.000000      1.000000
  0.250000  0.000000  0.000000      6.000000
  0.500000  0.000000  0.000000      3.000000
  0.250000  0.250000  0.000000      6.000000
 
 Following cartesian coordinates:
            Coordinates               Weight
  0.000000  0.000000  0.000000      1.000000
  0.031932 -0.018436  0.000000      6.000000
  0.063863 -0.036871  0.000000      3.000000
  0.063863  0.000000  0.000000      6.000000
 


--------------------------------------------------------------------------------------------------------




 Dimension of arrays:
   k-points           NKPTS =      4   k-points in BZ     NKDIM =      4   number of bands    NBANDS=     40
   number of dos      NEDOS =   5000   number of ions     NIONS =      8
   non local maximal  LDIM  =      5   non local SUM 2l+1 LMDIM =     13
   total plane-waves  NPLWV = 648000
   max r-space proj   IRMAX =      1   max aug-charges    IRDMAX=  49361
   dimension x,y,z NGX =    60 NGY =   60 NGZ =  180
   dimension x,y,z NGXF=   120 NGYF=  120 NGZF=  360
   support grid    NGXF=   120 NGYF=  120 NGZF=  360
   ions per type =               2   6
 NGX,Y,Z   is equivalent  to a cutoff of  12.74, 12.74, 12.65 a.u.
 NGXF,Y,Z  is equivalent  to a cutoff of  25.48, 25.48, 25.31 a.u.


 I would recommend the setting:
   dimension x,y,z NGX =    57 NGY =   57 NGZ =  172
 SYSTEM =  unknown system                          
 POSCAR =  Surf-mp-569157                          

 Startparameter for this run:
   NWRITE =      2    write-flag & timer
   PREC   = accura    normal or accurate (medium, high low for compatibility)
   ISTART =      0    job   : 0-new  1-cont  2-samecut
   ICHARG =      2    charge: 1-file 2-atom 10-const
   ISPIN  =      2    spin polarized calculation?
   LNONCOLLINEAR =      F non collinear calculations
   LSORBIT =      F    spin-orbit coupling
   INIWAV =      1    electr: 0-lowe 1-rand  2-diag
   LASPH  =      F    aspherical Exc in radial PAW
   METAGGA=      F    non-selfconsistent MetaGGA calc.

 Electronic Relaxation 1
   ENCUT  =  500.0 eV  36.75 Ry    6.06 a.u.  14.27 14.27 43.12*2*pi/ulx,y,z
   ENINI  =  500.0     initial cutoff
   ENAUG  =  370.1 eV  augmentation charge cutoff
   NELM   =    500;   NELMIN=  2; NELMDL= -5     # of ELM steps 
   EDIFF  = 0.1E-06   stopping-criterion for ELM
   LREAL  =      F    real-space projection
   NLSPLINE    = F    spline interpolate recip. space projectors
   LCOMPAT=      F    compatible to vasp.4.4
   GGA_COMPAT  = T    GGA compatible to vasp.4.4-vasp.4.6
   LMAXPAW     = -100 max onsite density
   LMAXMIX     =    2 max onsite mixed and CHGCAR
   VOSKOWN=      0    Vosko Wilk Nusair interpolation
   ROPT   =    0.00000   0.00000
 Ionic relaxation
   EDIFFG = -.1E-02   stopping-criterion for IOM
   NSW    =    500    number of steps for IOM
   NBLOCK =      1;   KBLOCK =    500    inner block; outer block 
   IBRION =      2    ionic relax: 0-MD 1-quasi-New 2-CG
   NFREE  =      1    steps in history (QN), initial steepest desc. (CG)
   ISIF   =      3    stress and relaxation
   IWAVPR =     11    prediction:  0-non 1-charg 2-wave 3-comb
   ISYM   =      2    0-nonsym 1-usesym 2-fastsym
   LCORR  =      T    Harris-Foulkes like correction to forces

   POTIM  = 0.5000    time-step for ionic-motion
   TEIN   =    0.0    initial temperature
   TEBEG  =    0.0;   TEEND  =   0.0 temperature during run
   SMASS  =  -3.00    Nose mass-parameter (am)
   estimated Nose-frequenzy (Omega)   =  0.10E-29 period in steps =****** mass=  -0.140E-26a.u.
   SCALEE = 1.0000    scale energy and forces
   NPACO  =    256;   APACO  = 16.0  distance and # of slots for P.C.
   PSTRESS=    0.0 pullay stress

  Mass of Ions in am
   POMASS = 208.98126.90
  Ionic Valenz
   ZVAL   =   5.00  7.00
  Atomic Wigner-Seitz radii
   RWIGS  =  -1.00 -1.00
  virtual crystal weights 
   VCA    =   1.00  1.00
   NELECT =      52.0000    total number of electrons
   NUPDOWN=      -1.0000    fix difference up-down

 DOS related values:
   EMIN   =  10.00;   EMAX   =-10.00  energy-range for DOS
   EFERMI =   0.00
   ISMEAR =     0;   SIGMA  =   0.20  broadening in eV -4-tet -1-fermi 0-gaus

 Electronic relaxation 2 (details)
   IALGO  =     38    algorithm
   LDIAG  =      T    sub-space diagonalisation (order eigenvalues)
   LSUBROT=      F    optimize rotation matrix (better conditioning)
   TURBO    =      0    0=normal 1=particle mesh
   IRESTART =      0    0=no restart 2=restart with 2 vectors
   NREBOOT  =      0    no. of reboots
   NMIN     =      0    reboot dimension
   EREF     =   0.00    reference energy to select bands
   IMIX   =      4    mixing-type and parameters
     AMIX     =   0.40;   BMIX     =  1.00
     AMIX_MAG =   1.60;   BMIX_MAG =  1.00
     AMIN     =   0.10
     WC   =   100.;   INIMIX=   1;  MIXPRE=   1;  MAXMIX= -45

 Intra band minimization:
   WEIMIN = 0.0010     energy-eigenvalue tresh-hold
   EBREAK =  0.63E-09  absolut break condition
   DEPER  =   0.30     relativ break condition  

   TIME   =   0.40     timestep for ELM

  volume/ion in A,a.u.               =     156.93      1059.02
  Fermi-wavevector in a.u.,A,eV,Ry     =   0.566427  1.070392  4.365287  0.320840
  Thomas-Fermi vector in A             =   1.604818
 
 Write flags
   LWAVE  =      F    write WAVECAR
   LCHARG =      F    write CHGCAR
   LVTOT  =      F    write LOCPOT, total local potential
   LVHAR  =      T    write LOCPOT, Hartree potential only
   LELF   =      F    write electronic localiz. function (ELF)
   LORBIT =     11    0 simple, 1 ext, 2 COOP (PROOUT)


 Dipole corrections
   LMONO  =      F    monopole corrections only (constant potential shift)
   LDIPOL =      F    correct potential (dipole corrections)
   IDIPOL =      0    1-x, 2-y, 3-z, 4-all directions 
   EPSILON=  1.0000000 bulk dielectric constant

 Exchange correlation treatment:
   GGA     =    BO    GGA type
   LEXCH   =    42    internal setting for exchange type
   VOSKOWN=      0    Vosko Wilk Nusair interpolation
   LHFCALC =     F    Hartree Fock is set to
   LHFONE  =     F    Hartree Fock one center treatment
   AEXX    =    0.0000 exact exchange contribution

 vdW DFT:
   LUSE_VDW   =     T    switch on vdW DFT
   Zab_VDW    =-.8491    correlation parameter
   PARAM1     =0.1833
   PARAM2     =0.2200
   PARAM3     =0.0000

 Linear response parameters
   LEPSILON=     F    determine dielectric tensor
   LRPA    =     F    only Hartree local field effects (RPA)
   LNABLA  =     F    use nabla operator in PAW spheres
   LVEL    =     F    velocity operator in full k-point grid
   LINTERFAST=   F  fast interpolation
   KINTER  =     0    interpolate to denser k-point grid
   CSHIFT  =0.1000    complex shift for real part using Kramers Kronig
   OMEGAMAX=  -1.0    maximum frequency
   DEG_THRESHOLD= 0.2000000E-02 threshold for treating states as degnerate
   RTIME   =    0.100 relaxation time in fs

 Orbital magnetization related:
   ORBITALMAG=     F  switch on orbital magnetization
   LCHIMAG   =     F  perturbation theory with respect to B field
   DQ        =  0.001000  dq finite difference perturbation B field



--------------------------------------------------------------------------------------------------------


 conjugate gradient relaxation of ions
 charge density and potential will be updated during run
 spin polarized calculation
 Variant of blocked Davidson
 Davidson routine will perform the subspace rotation
 perform sub-space diagonalisation
    after iterative eigenvector-optimisation
 modified Broyden-mixing scheme, WC =      100.0
 initial mixing is a Kerker type mixing with AMIX =  0.4000 and BMIX =      1.0000
 Hartree-type preconditioning will be used
 using additional bands           14
 reciprocal scheme for non local part
 use partial core corrections
 calculate Harris-corrections to forces 
   (improved forces if not selfconsistent)
 use gradient corrections 
 use of overlap-Matrix (Vanderbilt PP)
 Gauss-broadening in eV      SIGMA  =   0.20


--------------------------------------------------------------------------------------------------------


  energy-cutoff  :      500.00
  volume of cell :     1255.44
      direct lattice vectors                 reciprocal lattice vectors
     3.914614000 -6.780310000  0.000000000     0.127726514 -0.073742941  0.000000000
     3.914614000  6.780310000  0.000000000     0.127726514  0.073742941  0.000000000
     0.000000000  0.000000000 23.649804000     0.000000000  0.000000000  0.042283649

  length of vectors
     7.829227706  7.829227706 23.649804000     0.147485876  0.147485876  0.042283649


 
 k-points in units of 2pi/SCALE and weight: Automatic kpoint scheme                 
   0.00000000  0.00000000  0.00000000       0.062
   0.03193163 -0.01843574  0.00000000       0.375
   0.06386326 -0.03687147  0.00000000       0.188
   0.06386326  0.00000000  0.00000000       0.375
 
 k-points in reciprocal lattice and weights: Automatic kpoint scheme                 
   0.00000000  0.00000000  0.00000000       0.062
   0.25000000  0.00000000  0.00000000       0.375
   0.50000000  0.00000000  0.00000000       0.188
   0.25000000  0.25000000  0.00000000       0.375
 
 position of ions in fractional coordinates (direct lattice) 
   0.66666600  0.33333400  0.07716400
   0.33333400  0.66666600  0.07716400
   0.00000000  0.35537400  0.00000000
   0.64462600  0.64462600  0.00000000
   0.35537400  0.35537400  0.15432700
   0.35537400  0.00000000  0.00000000
   0.00000000  0.64462600  0.15432700
   0.64462600  0.00000000  0.15432700
 
 position of ions in cartesian coordinates  (Angst):
   3.91461400 -2.26009429  1.82491348
   3.91461400  2.26009429  1.82491348
   1.39115204  2.40954589  0.00000000
   5.04692393  0.00000000  0.00000000
   2.78230407  0.00000000  3.64980330
   1.39115204 -2.40954589  0.00000000
   2.52346196  4.37076411  3.64980330
   2.52346196 -4.37076411  3.64980330
 


--------------------------------------------------------------------------------------------------------


 k-point  1 :   0.0000 0.0000 0.0000  plane waves:   31929
 k-point  2 :   0.2500 0.0000 0.0000  plane waves:   31843
 k-point  3 :   0.5000 0.0000 0.0000  plane waves:   31898
 k-point  4 :   0.2500 0.2500 0.0000  plane waves:   31858

 maximum and minimum number of plane-waves per node :      8003     7936

 maximum number of plane-waves:     31929
 maximum index in each direction: 
   IXMAX=   14   IYMAX=   14   IZMAX=   43
   IXMIN=  -14   IYMIN=  -14   IZMIN=  -43

 NGX is ok and might be reduce to  58
 NGY is ok and might be reduce to  58
 NGZ is ok and might be reduce to 174

 parallel 3D FFT for wavefunctions:
    minimum data exchange during FFTs selected (reduces bandwidth)
 parallel 3D FFT for charge:
    minimum data exchange during FFTs selected (reduces bandwidth)


 total amount of memory used by VASP on root node    80243. kBytes
========================================================================

   base      :      30000. kBytes
   nonl-proj :       7687. kBytes
   fftplans  :      10505. kBytes
   grid      :      26874. kBytes
   one-center:         32. kBytes
   wavefun   :       5145. kBytes
 
     INWAV:  cpu time    0.0000: real time    0.0000
 Broyden mixing: mesh for mixing (old mesh)
   NGX = 29   NGY = 29   NGZ = 87
  (NGX  =120   NGY  =120   NGZ  =360)
  gives a total of  73167 points

 initial charge density was supplied:
 charge density of overlapping atoms calculated
 number of electron      52.0000000 magnetization       8.0000000
 keeping initial charge density in first step


--------------------------------------------------------------------------------------------------------


 Maximum index for augmentation-charges         1682 (set IRDMAX)


--------------------------------------------------------------------------------------------------------


 First call to EWALD:  gamma=   0.164
 Maximum number of real-space cells 4x 4x 2
 Maximum number of reciprocal cells 2x 2x 5

 FEWALD executed in parallel
    FEWALD:  cpu time    0.0026: real time    0.0026


----------------------------------------- Iteration    1(   1)  ---------------------------------------


vdW kernel read from vdw_kernel.bindat
  0.0000  0.2424  0.5071  0.7962  1.1119  1.4567  1.8333  2.2446  2.6937  3.1842
  3.7199  4.3049  4.9438  5.6415  6.4036  7.2358  8.1446  9.1372 10.2212 11.4050
 12.6979 14.1099 15.6519 17.3360 19.1751 21.1837 23.3773 25.7729 28.3892 31.2465
 34.3669 37.7748 41.4965 45.5611 50.0000
 
    POTLOK:  cpu time   10.3381: real time   10.3387
    SETDIJ:  cpu time    0.0285: real time    0.0285
     EDDAV:  cpu time    3.9518: real time    3.9522
       DOS:  cpu time    0.0033: real time    0.0033
    --------------------------------------------
      LOOP:  cpu time   14.3264: real time   14.3341

 eigenvalue-minimisations  :   640
 total energy-change (2. order) : 0.3993524E+03  (-0.1367630E+04)
 number of electron      52.0000000 magnetization       8.0000000
 augmentation part       52.0000000 magnetization       8.0000000

 Free energy of the ion-electron system (eV)
  ---------------------------------------------------
  alpha Z        PSCENC =         5.71901471
  Ewald energy   TEWEN  =      3283.86615406
  -Hartree energ DENC   =     -5163.58067308
  -exchange      EXHF   =         0.00000000
  -V(xc)+E(xc)   XCENC  =      -306.86689668
  PAW double counting   =      2175.49718841    -1767.87094852
  entropy T*S    EENTRO =        -0.15594589
  eigenvalues    EBANDS =       -44.70165184
  atomic energy  EATOM  =      2217.44617414
  Solvation  Ediel_sol  =         0.00000000
  ---------------------------------------------------
  free energy    TOTEN  =       399.35241531 eV

  energy without entropy =      399.50836120  energy(sigma->0) =      399.43038826


--------------------------------------------------------------------------------------------------------




----------------------------------------- Iteration    1(   2)  ---------------------------------------


     EDDAV:  cpu time    5.9784: real time    5.9780
       DOS:  cpu time    0.0037: real time    0.0037
    --------------------------------------------
      LOOP:  cpu time    5.9839: real time    5.9969

 eigenvalue-minimisations  :  1056
 total energy-change (2. order) :-0.3286004E+03  (-0.3143367E+03)
 number of electron      52.0000000 magnetization       8.0000000
 augmentation part       52.0000000 magnetization       8.0000000

 Free energy of the ion-electron system (eV)
  ---------------------------------------------------
  alpha Z        PSCENC =         5.71901471
  Ewald energy   TEWEN  =      3283.86615406
  -Hartree energ DENC   =     -5163.58067308
  -exchange      EXHF   =         0.00000000
  -V(xc)+E(xc)   XCENC  =      -306.86689668
  PAW double counting   =      2175.49718841    -1767.87094852
  entropy T*S    EENTRO =        -0.00000004
  eigenvalues    EBANDS =      -373.45803700
  atomic energy  EATOM  =      2217.44617414
  Solvation  Ediel_sol  =         0.00000000
  ---------------------------------------------------
  free energy    TOTEN  =        70.75197600 eV

  energy without entropy =       70.75197604  energy(sigma->0) =       70.75197602


--------------------------------------------------------------------------------------------------------




----------------------------------------- Iteration    1(   3)  ---------------------------------------


     EDDAV:  cpu time    4.5821: real time    4.5819
       DOS:  cpu time    0.0040: real time    0.0040
    --------------------------------------------
      LOOP:  cpu time    4.5879: real time    4.6258

 eigenvalue-minimisations  :   752
 total energy-change (2. order) :-0.7062397E+02  (-0.7023869E+02)
 number of electron      52.0000000 magnetization       8.0000000
 augmentation part       52.0000000 magnetization       8.0000000

 Free energy of the ion-electron system (eV)
  ---------------------------------------------------
  alpha Z        PSCENC =         5.71901471
  Ewald energy   TEWEN  =      3283.86615406
  -Hartree energ DENC   =     -5163.58067308
  -exchange      EXHF   =         0.00000000
  -V(xc)+E(xc)   XCENC  =      -306.86689668
  PAW double counting   =      2175.49718841    -1767.87094852
  entropy T*S    EENTRO =        -0.00000000
  eigenvalues    EBANDS =      -444.08200842
  atomic energy  EATOM  =      2217.44617414
  Solvation  Ediel_sol  =         0.00000000
  ---------------------------------------------------
  free energy    TOTEN  =         0.12800461 eV

  energy without entropy =        0.12800461  energy(sigma->0) =        0.12800461


--------------------------------------------------------------------------------------------------------




----------------------------------------- Iteration    1(   4)  ---------------------------------------


     EDDAV:  cpu time    5.1661: real time    5.1660
       DOS:  cpu time    0.0040: real time    0.0040
    --------------------------------------------
      LOOP:  cpu time    5.1719: real time    5.1840

 eigenvalue-minimisations  :   880
 total energy-change (2. order) :-0.3163943E+01  (-0.3159275E+01)
 number of electron      52.0000000 magnetization       8.0000000
 augmentation part       52.0000000 magnetization       8.0000000

 Free energy of the ion-electron system (eV)
  ---------------------------------------------------
  alpha Z        PSCENC =         5.71901471
  Ewald energy   TEWEN  =      3283.86615406
  -Hartree energ DENC   =     -5163.58067308
  -exchange      EXHF   =         0.00000000
  -V(xc)+E(xc)   XCENC  =      -306.86689668
  PAW double counting   =      2175.49718841    -1767.87094852
  entropy T*S    EENTRO =        -0.00000000
  eigenvalues    EBANDS =      -447.24595162
  atomic energy  EATOM  =      2217.44617414
  Solvation  Ediel_sol  =         0.00000000
  ---------------------------------------------------
  free energy    TOTEN  =        -3.03593858 eV

  energy without entropy =       -3.03593858  energy(sigma->0) =       -3.03593858


--------------------------------------------------------------------------------------------------------




----------------------------------------- Iteration    1(   5)  ---------------------------------------


     EDDAV:  cpu time    4.9982: real time    4.9987
       DOS:  cpu time    0.0039: real time    0.0039
    CHARGE:  cpu time    0.5479: real time    0.5479
    MIXING:  cpu time    0.0115: real time    0.0116
    --------------------------------------------
      LOOP:  cpu time    5.5638: real time    5.5865

 eigenvalue-minimisations  :   840
 total energy-change (2. order) :-0.5400981E-01  (-0.5400694E-01)
 number of electron      52.0000000 magnetization       7.1560942
 augmentation part      -13.1646170 magnetization       7.1929058

 Broyden mixing:
  rms(total) = 0.10203E+01    rms(broyden)= 0.10203E+01
  rms(prec ) = 0.10551E+01
  weight for this iteration     100.00

 Free energy of the ion-electron system (eV)
  ---------------------------------------------------
  alpha Z        PSCENC =         5.71901471
  Ewald energy   TEWEN  =      3283.86615406
  -Hartree energ DENC   =     -5163.58067308
  -exchange      EXHF   =         0.00000000
  -V(xc)+E(xc)   XCENC  =      -306.86689668
  PAW double counting   =      2175.49718841    -1767.87094852
  entropy T*S    EENTRO =        -0.00000000
  eigenvalues    EBANDS =      -447.29996143
  atomic energy  EATOM  =      2217.44617414
  Solvation  Ediel_sol  =         0.00000000
  ---------------------------------------------------
  free energy    TOTEN  =        -3.08994839 eV

  energy without entropy =       -3.08994839  energy(sigma->0) =       -3.08994839


--------------------------------------------------------------------------------------------------------




----------------------------------------- Iteration    1(   6)  ---------------------------------------


    POTLOK:  cpu time    9.7369: real time    9.7364
    SETDIJ:  cpu time    0.0284: real time    0.0284
     EDDAV:  cpu time    4.5085: real time    4.5082
       DOS:  cpu time    0.0042: real time    0.0042
    CHARGE:  cpu time    0.5516: real time    0.5516
    MIXING:  cpu time    0.0118: real time    0.0119
    --------------------------------------------
      LOOP:  cpu time   14.8439: real time   14.8866

 eigenvalue-minimisations  :   736
 total energy-change (2. order) : 0.1977911E+01  (-0.2710651E+00)
 number of electron      52.0000000 magnetization       6.3125974
 augmentation part      -13.1062848 magnetization       6.4503192

 Broyden mixing:
  rms(total) = 0.67654E+00    rms(broyden)= 0.67654E+00
  rms(prec ) = 0.68165E+00
  weight for this iteration     100.00

 eigenvalues of (default mixing * dielectric matrix)
  average eigenvalue GAMMA=   0.8710
  0.8710

 Free energy of the ion-electron system (eV)
  ---------------------------------------------------
  alpha Z        PSCENC =         5.71901471
  Ewald energy   TEWEN  =      3283.86615406
  -Hartree energ DENC   =     -5165.41892517
  -exchange      EXHF   =         0.00000000
  -V(xc)+E(xc)   XCENC  =      -305.19038159
  PAW double counting   =      2383.77678387    -1976.41637849
  entropy T*S    EENTRO =        -0.00000000
  eigenvalues    EBANDS =      -444.89447892
  atomic energy  EATOM  =      2217.44617414
  Solvation  Ediel_sol  =         0.00000000
  ---------------------------------------------------
  free energy    TOTEN  =        -1.11203739 eV

  energy without entropy =       -1.11203739  energy(sigma->0) =       -1.11203739


--------------------------------------------------------------------------------------------------------




----------------------------------------- Iteration    1(   7)  ---------------------------------------


    POTLOK:  cpu time    9.7317: real time    9.7317
    SETDIJ:  cpu time    0.0286: real time    0.0286
     EDDAV:  cpu time    4.6026: real time    4.6023
       DOS:  cpu time    0.0040: real time    0.0040
    CHARGE:  cpu time    0.5626: real time    0.5625
    MIXING:  cpu time    0.0117: real time    0.0117
    --------------------------------------------
      LOOP:  cpu time   14.9437: real time   15.1521

 eigenvalue-minimisations  :   752
 total energy-change (2. order) :-0.4398503E+00  (-0.8781012E-01)
 number of electron      52.0000000 magnetization       5.2360180
 augmentation part      -13.1087722 magnetization       5.3394828

 Broyden mixing:
  rms(total) = 0.46756E+00    rms(broyden)= 0.46756E+00
  rms(prec ) = 0.46871E+00
  weight for this iteration     100.00

 eigenvalues of (default mixing * dielectric matrix)
  average eigenvalue GAMMA=   1.1049
  1.5106  0.6991

 Free energy of the ion-electron system (eV)
  ---------------------------------------------------
  alpha Z        PSCENC =         5.71901471
  Ewald energy   TEWEN  =      3283.86615406
  -Hartree energ DENC   =     -5166.27320012
  -exchange      EXHF   =         0.00000000
  -V(xc)+E(xc)   XCENC  =      -305.02557423
  PAW double counting   =      2543.49595651    -2136.20455769
  entropy T*S    EENTRO =        -0.00000000
  eigenvalues    EBANDS =      -444.57585512
  atomic energy  EATOM  =      2217.44617414
  Solvation  Ediel_sol  =         0.00000000
  ---------------------------------------------------
  free energy    TOTEN  =        -1.55188774 eV

  energy without entropy =       -1.55188774  energy(sigma->0) =       -1.55188774


--------------------------------------------------------------------------------------------------------




----------------------------------------- Iteration    1(   8)  ---------------------------------------


    POTLOK:  cpu time    9.7423: real time    9.7420
    SETDIJ:  cpu time    0.0242: real time    0.0242
     EDDAV:  cpu time    4.4675: real time    4.4673
       DOS:  cpu time    0.0041: real time    0.0041
    CHARGE:  cpu time    0.5623: real time    0.5623
    MIXING:  cpu time    0.0146: real time    0.0146
    --------------------------------------------
      LOOP:  cpu time   14.8178: real time   14.8400

 eigenvalue-minimisations  :   728
 total energy-change (2. order) :-0.2808765E+00  (-0.2433948E-01)
 number of electron      52.0000000 magnetization       4.3724453
 augmentation part      -13.1338894 magnetization       4.4565028

 Broyden mixing:
  rms(total) = 0.28495E+00    rms(broyden)= 0.28495E+00
  rms(prec ) = 0.28540E+00
  weight for this iteration     100.00

 eigenvalues of (default mixing * dielectric matrix)
  average eigenvalue GAMMA=   1.2961
  2.3886  0.9020  0.5977

 Free energy of the ion-electron system (eV)
  ---------------------------------------------------
  alpha Z        PSCENC =         5.71901471
  Ewald energy   TEWEN  =      3283.86615406
  -Hartree energ DENC   =     -5166.31633214
  -exchange      EXHF   =         0.00000000
  -V(xc)+E(xc)   XCENC  =      -305.04736878
  PAW double counting   =      2731.36841092    -2324.06610355
  entropy T*S    EENTRO =        -0.00000000
  eigenvalues    EBANDS =      -444.80271365
  atomic energy  EATOM  =      2217.44617414
  Solvation  Ediel_sol  =         0.00000000
  ---------------------------------------------------
  free energy    TOTEN  =        -1.83276429 eV

  energy without entropy =       -1.83276429  energy(sigma->0) =       -1.83276429


--------------------------------------------------------------------------------------------------------




----------------------------------------- Iteration    1(   9)  ---------------------------------------


    POTLOK:  cpu time    9.7376: real time    9.7378
    SETDIJ:  cpu time    0.0236: real time    0.0236
     EDDAV:  cpu time    4.5240: real time    4.5237
       DOS:  cpu time    0.0045: real time    0.0045
    CHARGE:  cpu time    0.5598: real time    0.5599
    MIXING:  cpu time    0.0127: real time    0.0127
    --------------------------------------------
      LOOP:  cpu time   14.8651: real time   14.8867

 eigenvalue-minimisations  :   728
 total energy-change (2. order) :-0.2873867E+00  (-0.1526480E-01)
 number of electron      52.0000000 magnetization       3.6230015
 augmentation part      -13.1471021 magnetization       3.6922447

 Broyden mixing:
  rms(total) = 0.20556E+00    rms(broyden)= 0.20556E+00
  rms(prec ) = 0.20568E+00
  weight for this iteration     100.00

 eigenvalues of (default mixing * dielectric matrix)
  average eigenvalue GAMMA=   1.2916
  2.5107  1.2014  0.8610  0.5933

 Free energy of the ion-electron system (eV)
  ---------------------------------------------------
  alpha Z        PSCENC =         5.71901471
  Ewald energy   TEWEN  =      3283.86615406
  -Hartree energ DENC   =     -5166.06491334
  -exchange      EXHF   =         0.00000000
  -V(xc)+E(xc)   XCENC  =      -305.17128139
  PAW double counting   =      2817.44591874    -2410.09736550
  entropy T*S    EENTRO =        -0.00000000
  eigenvalues    EBANDS =      -445.26385238
  atomic energy  EATOM  =      2217.44617414
  Solvation  Ediel_sol  =         0.00000000
  ---------------------------------------------------
  free energy    TOTEN  =        -2.12015096 eV

  energy without entropy =       -2.12015096  energy(sigma->0) =       -2.12015096


--------------------------------------------------------------------------------------------------------




----------------------------------------- Iteration    1(  10)  ---------------------------------------


    POTLOK:  cpu time    9.7386: real time    9.7390
    SETDIJ:  cpu time    0.0236: real time    0.0236
     EDDAV:  cpu time    4.1212: real time    4.1210
       DOS:  cpu time    0.0042: real time    0.0042
    CHARGE:  cpu time    0.5600: real time    0.5600
    MIXING:  cpu time    0.0122: real time    0.0122
    --------------------------------------------
      LOOP:  cpu time   14.4627: real time   14.4709

 eigenvalue-minimisations  :   640
 total energy-change (2. order) :-0.1546972E+00  (-0.2027236E-01)
 number of electron      52.0000000 magnetization       2.1264549
 augmentation part      -13.1524788 magnetization       2.1831226

 Broyden mixing:
  rms(total) = 0.16778E+00    rms(broyden)= 0.16778E+00
  rms(prec ) = 0.16781E+00
  weight for this iteration     100.00

 eigenvalues of (default mixing * dielectric matrix)
  average eigenvalue GAMMA=   1.3817
  2.7192  1.8706  0.9828  0.7345  0.6013

 Free energy of the ion-electron system (eV)
  ---------------------------------------------------
  alpha Z        PSCENC =         5.71901471
  Ewald energy   TEWEN  =      3283.86615406
  -Hartree energ DENC   =     -5165.68425733
  -exchange      EXHF   =         0.00000000
  -V(xc)+E(xc)   XCENC  =      -305.32641712
  PAW double counting   =      2827.57502670    -2420.19082100
  entropy T*S    EENTRO =        -0.00000000
  eigenvalues    EBANDS =      -445.67972233
  atomic energy  EATOM  =      2217.44617414
  Solvation  Ediel_sol  =         0.00000000
  ---------------------------------------------------
  free energy    TOTEN  =        -2.27484817 eV

  energy without entropy =       -2.27484817  energy(sigma->0) =       -2.27484817


--------------------------------------------------------------------------------------------------------




----------------------------------------- Iteration    1(  11)  ---------------------------------------


    POTLOK:  cpu time    9.7588: real time    9.7593
    SETDIJ:  cpu time    0.0278: real time    0.0278
     EDDAV:  cpu time    4.4973: real time    4.4976
       DOS:  cpu time    0.0040: real time    0.0040
    CHARGE:  cpu time    0.5585: real time    0.5585
    MIXING:  cpu time    0.0131: real time    0.0131
    --------------------------------------------
      LOOP:  cpu time   14.8622: real time   14.8710

 eigenvalue-minimisations  :   728
 total energy-change (2. order) :-0.2541245E+00  (-0.4900464E-02)
 number of electron      52.0000000 magnetization       0.5439882
 augmentation part      -13.1508692 magnetization       0.5796602

 Broyden mixing:
  rms(total) = 0.10809E+00    rms(broyden)= 0.10809E+00
  rms(prec ) = 0.10816E+00
  weight for this iteration     100.00

 eigenvalues of (default mixing * dielectric matrix)
  average eigenvalue GAMMA=   1.8353
  5.3328  2.2535  1.2391  0.9539  0.6163  0.6163

 Free energy of the ion-electron system (eV)
  ---------------------------------------------------
  alpha Z        PSCENC =         5.71901471
  Ewald energy   TEWEN  =      3283.86615406
  -Hartree energ DENC   =     -5165.38818239
  -exchange      EXHF   =         0.00000000
  -V(xc)+E(xc)   XCENC  =      -305.51544993
  PAW double counting   =      2825.79984563    -2418.38734799
  entropy T*S    EENTRO =        -0.00000000
  eigenvalues    EBANDS =      -446.06918095
  atomic energy  EATOM  =      2217.44617414
  Solvation  Ediel_sol  =         0.00000000
  ---------------------------------------------------
  free energy    TOTEN  =        -2.52897272 eV

  energy without entropy =       -2.52897272  energy(sigma->0) =       -2.52897272


--------------------------------------------------------------------------------------------------------




----------------------------------------- Iteration    1(  12)  ---------------------------------------


    POTLOK:  cpu time    9.7458: real time    9.7451
    SETDIJ:  cpu time    0.0284: real time    0.0284
     EDDAV:  cpu time    4.5486: real time    4.5484
       DOS:  cpu time    0.0040: real time    0.0040
    CHARGE:  cpu time    0.5554: real time    0.5553
    MIXING:  cpu time    0.0158: real time    0.0158
    --------------------------------------------
      LOOP:  cpu time   14.9007: real time   14.9129

 eigenvalue-minimisations  :   744
 total energy-change (2. order) :-0.1431385E+00  (-0.4050699E-02)
 number of electron      52.0000000 magnetization       0.1594260
 augmentation part      -13.1461546 magnetization       0.1713303

 Broyden mixing:
  rms(total) = 0.43025E-01    rms(broyden)= 0.43025E-01
  rms(prec ) = 0.43389E-01
  weight for this iteration     100.00

 eigenvalues of (default mixing * dielectric matrix)
  average eigenvalue GAMMA=   2.0903
  7.7603  2.4715  1.3010  1.0704  0.8109  0.6089  0.6089

 Free energy of the ion-electron system (eV)
  ---------------------------------------------------
  alpha Z        PSCENC =         5.71901471
  Ewald energy   TEWEN  =      3283.86615406
  -Hartree energ DENC   =     -5165.25904740
  -exchange      EXHF   =         0.00000000
  -V(xc)+E(xc)   XCENC  =      -305.61906817
  PAW double counting   =      2809.02346242    -2401.60495942
  entropy T*S    EENTRO =        -0.00000000
  eigenvalues    EBANDS =      -446.24384159
  atomic energy  EATOM  =      2217.44617414
  Solvation  Ediel_sol  =         0.00000000
  ---------------------------------------------------
  free energy    TOTEN  =        -2.67211125 eV

  energy without entropy =       -2.67211125  energy(sigma->0) =       -2.67211125


--------------------------------------------------------------------------------------------------------




----------------------------------------- Iteration    1(  13)  ---------------------------------------


    POTLOK:  cpu time    9.7356: real time    9.7350
    SETDIJ:  cpu time    0.0244: real time    0.0244
     EDDAV:  cpu time    4.5936: real time    4.5933
       DOS:  cpu time    0.0042: real time    0.0042
    CHARGE:  cpu time    0.5605: real time    0.5605
    MIXING:  cpu time    0.0131: real time    0.0131
    --------------------------------------------
      LOOP:  cpu time   14.9343: real time   14.9448

 eigenvalue-minimisations  :   760
 total energy-change (2. order) :-0.1639511E-01  (-0.7870897E-03)
 number of electron      52.0000000 magnetization       0.0375726
 augmentation part      -13.1445021 magnetization       0.0404690

 Broyden mixing:
  rms(total) = 0.19610E-01    rms(broyden)= 0.19610E-01
  rms(prec ) = 0.19884E-01
  weight for this iteration     100.00

 eigenvalues of (default mixing * dielectric matrix)
  average eigenvalue GAMMA=   2.1788
  8.9129  2.6428  1.6889  1.2096  0.9329  0.8008  0.6215  0.6215

 Free energy of the ion-electron system (eV)
  ---------------------------------------------------
  alpha Z        PSCENC =         5.71901471
  Ewald energy   TEWEN  =      3283.86615406
  -Hartree energ DENC   =     -5165.25391741
  -exchange      EXHF   =         0.00000000
  -V(xc)+E(xc)   XCENC  =      -305.63786471
  PAW double counting   =      2797.19363376    -2389.79116911
  entropy T*S    EENTRO =        -0.00000000
  eigenvalues    EBANDS =      -446.23053180
  atomic energy  EATOM  =      2217.44617414
  Solvation  Ediel_sol  =         0.00000000
  ---------------------------------------------------
  free energy    TOTEN  =        -2.68850636 eV

  energy without entropy =       -2.68850636  energy(sigma->0) =       -2.68850636


--------------------------------------------------------------------------------------------------------




----------------------------------------- Iteration    1(  14)  ---------------------------------------


    POTLOK:  cpu time    9.7533: real time    9.7526
    SETDIJ:  cpu time    0.0255: real time    0.0255
     EDDAV:  cpu time    4.4553: real time    4.4552
       DOS:  cpu time    0.0044: real time    0.0044
    CHARGE:  cpu time    0.5578: real time    0.5577
    MIXING:  cpu time    0.0136: real time    0.0136
    --------------------------------------------
      LOOP:  cpu time   14.8130: real time   14.8351

 eigenvalue-minimisations  :   712
 total energy-change (2. order) :-0.7514591E-03  (-0.3178841E-03)
 number of electron      52.0000000 magnetization       0.0048626
 augmentation part      -13.1452465 magnetization       0.0050506

 Broyden mixing:
  rms(total) = 0.71359E-02    rms(broyden)= 0.71359E-02
  rms(prec ) = 0.72699E-02
  weight for this iteration     100.00

 eigenvalues of (default mixing * dielectric matrix)
  average eigenvalue GAMMA=   2.1592
  9.3752  2.6654  2.2504  1.1616  1.1616  0.8625  0.6249  0.6249  0.7069

 Free energy of the ion-electron system (eV)
  ---------------------------------------------------
  alpha Z        PSCENC =         5.71901471
  Ewald energy   TEWEN  =      3283.86615406
  -Hartree energ DENC   =     -5165.17713049
  -exchange      EXHF   =         0.00000000
  -V(xc)+E(xc)   XCENC  =      -305.63669619
  PAW double counting   =      2798.66941525    -2391.27935445
  entropy T*S    EENTRO =        -0.00000000
  eigenvalues    EBANDS =      -446.29683486
  atomic energy  EATOM  =      2217.44617414
  Solvation  Ediel_sol  =         0.00000000
  ---------------------------------------------------
  free energy    TOTEN  =        -2.68925782 eV

  energy without entropy =       -2.68925782  energy(sigma->0) =       -2.68925782


--------------------------------------------------------------------------------------------------------




----------------------------------------- Iteration    1(  15)  ---------------------------------------


    POTLOK:  cpu time    9.7620: real time    9.7615
    SETDIJ:  cpu time    0.0282: real time    0.0282
     EDDAV:  cpu time    4.6430: real time    4.6431
       DOS:  cpu time    0.0040: real time    0.0040
    CHARGE:  cpu time    0.5529: real time    0.5541
    MIXING:  cpu time    0.0145: real time    0.0145
    --------------------------------------------
      LOOP:  cpu time   15.0074: real time   15.0278

 eigenvalue-minimisations  :   760
 total energy-change (2. order) : 0.4315337E-03  (-0.2350961E-04)
 number of electron      52.0000000 magnetization       0.0022914
 augmentation part      -13.1465593 magnetization       0.0023499

 Broyden mixing:
  rms(total) = 0.29489E-02    rms(broyden)= 0.29489E-02
  rms(prec ) = 0.30455E-02
  weight for this iteration     100.00

 eigenvalues of (default mixing * dielectric matrix)
  average eigenvalue GAMMA=   2.0584
  9.4487  2.5413  2.5413  1.1885  1.1885  0.9498  0.7894  0.6104  0.6405  0.6856

 Free energy of the ion-electron system (eV)
  ---------------------------------------------------
  alpha Z        PSCENC =         5.71901471
  Ewald energy   TEWEN  =      3283.86615406
  -Hartree energ DENC   =     -5165.09359624
  -exchange      EXHF   =         0.00000000
  -V(xc)+E(xc)   XCENC  =      -305.63270353
  PAW double counting   =      2802.59336674    -2395.20628294
  entropy T*S    EENTRO =        -0.00000000
  eigenvalues    EBANDS =      -446.38095324
  atomic energy  EATOM  =      2217.44617414
  Solvation  Ediel_sol  =         0.00000000
  ---------------------------------------------------
  free energy    TOTEN  =        -2.68882629 eV

  energy without entropy =       -2.68882629  energy(sigma->0) =       -2.68882629


--------------------------------------------------------------------------------------------------------




----------------------------------------- Iteration    1(  16)  ---------------------------------------


    POTLOK:  cpu time    9.7455: real time    9.7452
    SETDIJ:  cpu time    0.0245: real time    0.0245
     EDDAV:  cpu time    4.5206: real time    4.5203
       DOS:  cpu time    0.0043: real time    0.0043
    CHARGE:  cpu time    0.5517: real time    0.5517
    MIXING:  cpu time    0.0174: real time    0.0174
    --------------------------------------------
      LOOP:  cpu time   14.8669: real time   14.8841

 eigenvalue-minimisations  :   736
 total energy-change (2. order) : 0.2314398E-04  (-0.3665854E-05)
 number of electron      52.0000000 magnetization       0.0012261
 augmentation part      -13.1467519 magnetization       0.0011891

 Broyden mixing:
  rms(total) = 0.14735E-02    rms(broyden)= 0.14735E-02
  rms(prec ) = 0.15828E-02
  weight for this iteration     100.00

 eigenvalues of (default mixing * dielectric matrix)
  average eigenvalue GAMMA=   1.9936
  9.4640  2.5543  2.5543  1.2875  1.2875  1.1806  0.8942  0.8061  0.6090  0.6572
  0.6354

 Free energy of the ion-electron system (eV)
  ---------------------------------------------------
  alpha Z        PSCENC =         5.71901471
  Ewald energy   TEWEN  =      3283.86615406
  -Hartree energ DENC   =     -5165.05020228
  -exchange      EXHF   =         0.00000000
  -V(xc)+E(xc)   XCENC  =      -305.63291737
  PAW double counting   =      2803.48218869    -2396.09407888
  entropy T*S    EENTRO =        -0.00000000
  eigenvalues    EBANDS =      -446.42513622
  atomic energy  EATOM  =      2217.44617414
  Solvation  Ediel_sol  =         0.00000000
  ---------------------------------------------------
  free energy    TOTEN  =        -2.68880314 eV

  energy without entropy =       -2.68880314  energy(sigma->0) =       -2.68880314


--------------------------------------------------------------------------------------------------------




----------------------------------------- Iteration    1(  17)  ---------------------------------------


    POTLOK:  cpu time    9.7514: real time    9.7510
    SETDIJ:  cpu time    0.0277: real time    0.0277
     EDDAV:  cpu time    4.2742: real time    4.2745
       DOS:  cpu time    0.0041: real time    0.0041
    CHARGE:  cpu time    0.5571: real time    0.5572
    MIXING:  cpu time    0.0177: real time    0.0177
    --------------------------------------------
      LOOP:  cpu time   14.6348: real time   14.6625

 eigenvalue-minimisations  :   680
 total energy-change (2. order) :-0.6829160E-04  (-0.1798823E-05)
 number of electron      52.0000000 magnetization       0.0008179
 augmentation part      -13.1468889 magnetization       0.0007482

 Broyden mixing:
  rms(total) = 0.70263E-03    rms(broyden)= 0.70263E-03
  rms(prec ) = 0.78679E-03
  weight for this iteration     100.00

 eigenvalues of (default mixing * dielectric matrix)
  average eigenvalue GAMMA=   1.9888
  9.4732  2.6523  2.6523  2.2067  1.2318  1.2318  0.9670  0.8119  0.7386  0.6187
  0.6187  0.6626

 Free energy of the ion-electron system (eV)
  ---------------------------------------------------
  alpha Z        PSCENC =         5.71901471
  Ewald energy   TEWEN  =      3283.86615406
  -Hartree energ DENC   =     -5164.98732665
  -exchange      EXHF   =         0.00000000
  -V(xc)+E(xc)   XCENC  =      -305.63400311
  PAW double counting   =      2804.01712683    -2396.62723872
  entropy T*S    EENTRO =        -0.00000000
  eigenvalues    EBANDS =      -446.48877271
  atomic energy  EATOM  =      2217.44617414
  Solvation  Ediel_sol  =         0.00000000
  ---------------------------------------------------
  free energy    TOTEN  =        -2.68887143 eV

  energy without entropy =       -2.68887143  energy(sigma->0) =       -2.68887143


--------------------------------------------------------------------------------------------------------




----------------------------------------- Iteration    1(  18)  ---------------------------------------


    POTLOK:  cpu time    9.7702: real time    9.7697
    SETDIJ:  cpu time    0.0240: real time    0.0240
     EDDAV:  cpu time    4.4093: real time    4.4096
       DOS:  cpu time    0.0041: real time    0.0041
    CHARGE:  cpu time    0.5674: real time    0.5674
    MIXING:  cpu time    0.0150: real time    0.0150
    --------------------------------------------
      LOOP:  cpu time   14.7931: real time   14.8035

 eigenvalue-minimisations  :   712
 total energy-change (2. order) :-0.5442621E-04  (-0.1094164E-05)
 number of electron      52.0000000 magnetization       0.0006974
 augmentation part      -13.1468378 magnetization       0.0006797

 Broyden mixing:
  rms(total) = 0.33579E-03    rms(broyden)= 0.33579E-03
  rms(prec ) = 0.41214E-03
  weight for this iteration     100.00

 eigenvalues of (default mixing * dielectric matrix)
  average eigenvalue GAMMA=   1.9175
  9.4738  2.5477  2.4796  2.4796  1.3424  1.1413  1.1413  0.8998  0.8464  0.7016
  0.6464  0.6136  0.6136

 Free energy of the ion-electron system (eV)
  ---------------------------------------------------
  alpha Z        PSCENC =         5.71901471
  Ewald energy   TEWEN  =      3283.86615406
  -Hartree energ DENC   =     -5164.94622123
  -exchange      EXHF   =         0.00000000
  -V(xc)+E(xc)   XCENC  =      -305.63463665
  PAW double counting   =      2803.92321155    -2396.53289459
  entropy T*S    EENTRO =        -0.00000000
  eigenvalues    EBANDS =      -446.52972785
  atomic energy  EATOM  =      2217.44617414
  Solvation  Ediel_sol  =         0.00000000
  ---------------------------------------------------
  free energy    TOTEN  =        -2.68892586 eV

  energy without entropy =       -2.68892586  energy(sigma->0) =       -2.68892586


--------------------------------------------------------------------------------------------------------




----------------------------------------- Iteration    1(  19)  ---------------------------------------


    POTLOK:  cpu time    9.7682: real time    9.7676
    SETDIJ:  cpu time    0.0283: real time    0.0283
     EDDAV:  cpu time    3.8612: real time    3.8610
       DOS:  cpu time    0.0045: real time    0.0045
    CHARGE:  cpu time    0.5606: real time    0.5606
    MIXING:  cpu time    0.0187: real time    0.0187
    --------------------------------------------
      LOOP:  cpu time   14.2446: real time   14.2518

 eigenvalue-minimisations  :   592
 total energy-change (2. order) : 0.3078625E-04  (-0.5521013E-06)
 number of electron      52.0000000 magnetization       0.0005103
 augmentation part      -13.1468024 magnetization       0.0005034

 Broyden mixing:
  rms(total) = 0.22066E-03    rms(broyden)= 0.22066E-03
  rms(prec ) = 0.29579E-03
  weight for this iteration     100.00

 eigenvalues of (default mixing * dielectric matrix)
  average eigenvalue GAMMA=   1.8954
  9.4737  2.7395  2.3881  2.3881  1.5899  1.5899  1.1288  0.9882  0.8548  0.8086
  0.7220  0.6390  0.6122  0.6122

 Free energy of the ion-electron system (eV)
  ---------------------------------------------------
  alpha Z        PSCENC =         5.71901471
  Ewald energy   TEWEN  =      3283.86615406
  -Hartree energ DENC   =     -5164.92423024
  -exchange      EXHF   =         0.00000000
  -V(xc)+E(xc)   XCENC  =      -305.63483102
  PAW double counting   =      2803.76737685    -2396.37725895
  entropy T*S    EENTRO =        -0.00000000
  eigenvalues    EBANDS =      -446.55129463
  atomic energy  EATOM  =      2217.44617414
  Solvation  Ediel_sol  =         0.00000000
  ---------------------------------------------------
  free energy    TOTEN  =        -2.68889507 eV

  energy without entropy =       -2.68889507  energy(sigma->0) =       -2.68889507


--------------------------------------------------------------------------------------------------------




----------------------------------------- Iteration    1(  20)  ---------------------------------------


    POTLOK:  cpu time    9.7538: real time    9.7535
    SETDIJ:  cpu time    0.0248: real time    0.0248
     EDDAV:  cpu time    3.9815: real time    3.9820
       DOS:  cpu time    0.0043: real time    0.0043
    CHARGE:  cpu time    0.5595: real time    0.5597
    MIXING:  cpu time    0.0165: real time    0.0165
    --------------------------------------------
      LOOP:  cpu time   14.3432: real time   14.3653

 eigenvalue-minimisations  :   608
 total energy-change (2. order) : 0.1016317E-04  (-0.4464220E-06)
 number of electron      52.0000000 magnetization       0.0003997
 augmentation part      -13.1468037 magnetization       0.0003977

 Broyden mixing:
  rms(total) = 0.10967E-03    rms(broyden)= 0.10967E-03
  rms(prec ) = 0.17548E-03
  weight for this iteration     100.00

 eigenvalues of (default mixing * dielectric matrix)
  average eigenvalue GAMMA=   1.9010
  9.4737  2.8161  2.8161  2.5159  2.0550  1.5783  1.0904  1.0904  0.9075  0.8834
  0.7282  0.6920  0.6126  0.6126  0.6433

 Free energy of the ion-electron system (eV)
  ---------------------------------------------------
  alpha Z        PSCENC =         5.71901471
  Ewald energy   TEWEN  =      3283.86615406
  -Hartree energ DENC   =     -5164.88173436
  -exchange      EXHF   =         0.00000000
  -V(xc)+E(xc)   XCENC  =      -305.63526308
  PAW double counting   =      2803.76642159    -2396.37626024
  entropy T*S    EENTRO =        -0.00000000
  eigenvalues    EBANDS =      -446.59339173
  atomic energy  EATOM  =      2217.44617414
  Solvation  Ediel_sol  =         0.00000000
  ---------------------------------------------------
  free energy    TOTEN  =        -2.68888491 eV

  energy without entropy =       -2.68888491  energy(sigma->0) =       -2.68888491


--------------------------------------------------------------------------------------------------------




----------------------------------------- Iteration    1(  21)  ---------------------------------------


    POTLOK:  cpu time    9.7585: real time    9.7587
    SETDIJ:  cpu time    0.0239: real time    0.0239
     EDDAV:  cpu time    4.1963: real time    4.1962
       DOS:  cpu time    0.0041: real time    0.0041
    CHARGE:  cpu time    0.5538: real time    0.5538
    MIXING:  cpu time    0.0190: real time    0.0190
    --------------------------------------------
      LOOP:  cpu time   14.5581: real time   14.5806

 eigenvalue-minimisations  :   672
 total energy-change (2. order) :-0.6355596E-05  (-0.2266207E-06)
 number of electron      52.0000000 magnetization       0.0003352
 augmentation part      -13.1468167 magnetization       0.0003304

 Broyden mixing:
  rms(total) = 0.98142E-04    rms(broyden)= 0.98142E-04
  rms(prec ) = 0.14027E-03
  weight for this iteration     100.00

 eigenvalues of (default mixing * dielectric matrix)
  average eigenvalue GAMMA=   1.8461
  9.4735  3.2255  2.6532  2.2996  2.2996  1.4209  1.1535  1.1535  0.9095  0.8474
  0.8474  0.7344  0.6137  0.6137  0.6552  0.6371

 Free energy of the ion-electron system (eV)
  ---------------------------------------------------
  alpha Z        PSCENC =         5.71901471
  Ewald energy   TEWEN  =      3283.86615406
  -Hartree energ DENC   =     -5164.85252217
  -exchange      EXHF   =         0.00000000
  -V(xc)+E(xc)   XCENC  =      -305.63552800
  PAW double counting   =      2803.84620382    -2396.45599552
  entropy T*S    EENTRO =        -0.00000000
  eigenvalues    EBANDS =      -446.62239231
  atomic energy  EATOM  =      2217.44617414
  Solvation  Ediel_sol  =         0.00000000
  ---------------------------------------------------
  free energy    TOTEN  =        -2.68889127 eV

  energy without entropy =       -2.68889127  energy(sigma->0) =       -2.68889127


--------------------------------------------------------------------------------------------------------




----------------------------------------- Iteration    1(  22)  ---------------------------------------


    POTLOK:  cpu time    9.7628: real time    9.7664
    SETDIJ:  cpu time    0.0243: real time    0.0243
     EDDAV:  cpu time    4.1399: real time    4.1402
       DOS:  cpu time    0.0042: real time    0.0042
    CHARGE:  cpu time    0.5522: real time    0.5522
    MIXING:  cpu time    0.0174: real time    0.0174
    --------------------------------------------
      LOOP:  cpu time   14.5037: real time   14.5226

 eigenvalue-minimisations  :   640
 total energy-change (2. order) :-0.8350304E-05  (-0.1220452E-06)
 number of electron      52.0000000 magnetization       0.0001421
 augmentation part      -13.1468229 magnetization       0.0001361

 Broyden mixing:
  rms(total) = 0.60989E-04    rms(broyden)= 0.60989E-04
  rms(prec ) = 0.10099E-03
  weight for this iteration     100.00

 eigenvalues of (default mixing * dielectric matrix)
  average eigenvalue GAMMA=   1.8266
  9.4735  3.2975  2.4988  2.4007  2.4007  1.4598  1.4598  1.0715  1.0715  0.9504
  0.9504  0.8125  0.6967  0.6123  0.6123  0.6514  0.6329

 Free energy of the ion-electron system (eV)
  ---------------------------------------------------
  alpha Z        PSCENC =         5.71901471
  Ewald energy   TEWEN  =      3283.86615406
  -Hartree energ DENC   =     -5164.83709539
  -exchange      EXHF   =         0.00000000
  -V(xc)+E(xc)   XCENC  =      -305.63565089
  PAW double counting   =      2803.85842974    -2396.46829382
  entropy T*S    EENTRO =        -0.00000000
  eigenvalues    EBANDS =      -446.63763217
  atomic energy  EATOM  =      2217.44617414
  Solvation  Ediel_sol  =         0.00000000
  ---------------------------------------------------
  free energy    TOTEN  =        -2.68889962 eV

  energy without entropy =       -2.68889962  energy(sigma->0) =       -2.68889962


--------------------------------------------------------------------------------------------------------




----------------------------------------- Iteration    1(  23)  ---------------------------------------


    POTLOK:  cpu time    9.7497: real time    9.7493
    SETDIJ:  cpu time    0.0246: real time    0.0246
     EDDAV:  cpu time    4.1894: real time    4.1898
       DOS:  cpu time    0.0041: real time    0.0041
    CHARGE:  cpu time    0.5580: real time    0.5580
    MIXING:  cpu time    0.0176: real time    0.0176
    --------------------------------------------
      LOOP:  cpu time   14.5462: real time   14.5558

 eigenvalue-minimisations  :   656
 total energy-change (2. order) :-0.3808852E-04  (-0.6703146E-06)
 number of electron      52.0000000 magnetization       0.0000702
 augmentation part      -13.1468371 magnetization       0.0000659

 Broyden mixing:
  rms(total) = 0.36637E-04    rms(broyden)= 0.36637E-04
  rms(prec ) = 0.47764E-04
  weight for this iteration     100.00

 eigenvalues of (default mixing * dielectric matrix)
  average eigenvalue GAMMA=   1.9566
  9.4735  5.2282  2.8728  2.6666  2.0999  2.0999  1.7438  1.1002  1.0716  1.0716
  0.9508  0.8557  0.7635  0.7076  0.6126  0.6126  0.6566  0.6308

 Free energy of the ion-electron system (eV)
  ---------------------------------------------------
  alpha Z        PSCENC =         5.71901471
  Ewald energy   TEWEN  =      3283.86615406
  -Hartree energ DENC   =     -5164.79595324
  -exchange      EXHF   =         0.00000000
  -V(xc)+E(xc)   XCENC  =      -305.63602171
  PAW double counting   =      2803.83959000    -2396.44958967
  entropy T*S    EENTRO =        -0.00000000
  eigenvalues    EBANDS =      -446.67830600
  atomic energy  EATOM  =      2217.44617414
  Solvation  Ediel_sol  =         0.00000000
  ---------------------------------------------------
  free energy    TOTEN  =        -2.68893771 eV

  energy without entropy =       -2.68893771  energy(sigma->0) =       -2.68893771


--------------------------------------------------------------------------------------------------------




----------------------------------------- Iteration    1(  24)  ---------------------------------------


    POTLOK:  cpu time    9.7724: real time    9.7725
    SETDIJ:  cpu time    0.0237: real time    0.0237
     EDDAV:  cpu time    4.2544: real time    4.2544
       DOS:  cpu time    0.0041: real time    0.0041
    CHARGE:  cpu time    0.5450: real time    0.5450
    MIXING:  cpu time    0.0212: real time    0.0212
    --------------------------------------------
      LOOP:  cpu time   14.6238: real time   14.6353

 eigenvalue-minimisations  :   664
 total energy-change (2. order) :-0.2870487E-04  (-0.2427925E-06)
 number of electron      52.0000000 magnetization       0.0000408
 augmentation part      -13.1468454 magnetization       0.0000378

 Broyden mixing:
  rms(total) = 0.27531E-04    rms(broyden)= 0.27531E-04
  rms(prec ) = 0.31894E-04
  weight for this iteration     100.00

 eigenvalues of (default mixing * dielectric matrix)
  average eigenvalue GAMMA=   1.9606
  9.4735  6.0029  3.0088  2.5166  2.1791  2.1791  1.5113  1.5113  1.1183  1.1183
  0.9311  0.9311  0.8235  0.7358  0.7086  0.6124  0.6124  0.6476  0.6300

 Free energy of the ion-electron system (eV)
  ---------------------------------------------------
  alpha Z        PSCENC =         5.71901471
  Ewald energy   TEWEN  =      3283.86615406
  -Hartree energ DENC   =     -5164.78126959
  -exchange      EXHF   =         0.00000000
  -V(xc)+E(xc)   XCENC  =      -305.63617372
  PAW double counting   =      2803.84214841    -2396.45213190
  entropy T*S    EENTRO =        -0.00000000
  eigenvalues    EBANDS =      -446.69288253
  atomic energy  EATOM  =      2217.44617414
  Solvation  Ediel_sol  =         0.00000000
  ---------------------------------------------------
  free energy    TOTEN  =        -2.68896641 eV

  energy without entropy =       -2.68896641  energy(sigma->0) =       -2.68896641


--------------------------------------------------------------------------------------------------------




----------------------------------------- Iteration    1(  25)  ---------------------------------------


    POTLOK:  cpu time    9.7653: real time    9.7648
    SETDIJ:  cpu time    0.0242: real time    0.0242
     EDDAV:  cpu time    3.8957: real time    3.8963
       DOS:  cpu time    0.0042: real time    0.0042
    CHARGE:  cpu time    0.5600: real time    0.5601
    MIXING:  cpu time    0.0188: real time    0.0188
    --------------------------------------------
      LOOP:  cpu time   14.2713: real time   14.2854

 eigenvalue-minimisations  :   592
 total energy-change (2. order) : 0.8361062E-06  (-0.1563490E-06)
 number of electron      52.0000000 magnetization       0.0000199
 augmentation part      -13.1468475 magnetization       0.0000176

 Broyden mixing:
  rms(total) = 0.12825E-04    rms(broyden)= 0.12825E-04
  rms(prec ) = 0.15922E-04
  weight for this iteration     100.00

 eigenvalues of (default mixing * dielectric matrix)
  average eigenvalue GAMMA=   2.0176
  9.4735  7.1612  3.1695  2.6327  2.1799  2.1799  1.8565  1.8565  1.1852  1.0696
  1.0696  0.9200  0.8852  0.8097  0.7114  0.7070  0.6124  0.6124  0.6320  0.6272

 Free energy of the ion-electron system (eV)
  ---------------------------------------------------
  alpha Z        PSCENC =         5.71901471
  Ewald energy   TEWEN  =      3283.86615406
  -Hartree energ DENC   =     -5164.77652298
  -exchange      EXHF   =         0.00000000
  -V(xc)+E(xc)   XCENC  =      -305.63623715
  PAW double counting   =      2803.83758528    -2396.44755071
  entropy T*S    EENTRO =        -0.00000000
  eigenvalues    EBANDS =      -446.69758292
  atomic energy  EATOM  =      2217.44617414
  Solvation  Ediel_sol  =         0.00000000
  ---------------------------------------------------
  free energy    TOTEN  =        -2.68896557 eV

  energy without entropy =       -2.68896557  energy(sigma->0) =       -2.68896557


--------------------------------------------------------------------------------------------------------




----------------------------------------- Iteration    1(  26)  ---------------------------------------


    POTLOK:  cpu time    9.7704: real time    9.7705
    SETDIJ:  cpu time    0.0240: real time    0.0240
     EDDAV:  cpu time    3.8993: real time    3.8993
       DOS:  cpu time    0.0041: real time    0.0041
    CHARGE:  cpu time    0.5613: real time    0.5613
    MIXING:  cpu time    0.0198: real time    0.0198
    --------------------------------------------
      LOOP:  cpu time   14.2814: real time   14.4421

 eigenvalue-minimisations  :   592
 total energy-change (2. order) :-0.5688544E-06  (-0.1483955E-06)
 number of electron      52.0000000 magnetization       0.0000150
 augmentation part      -13.1468487 magnetization       0.0000128

 Broyden mixing:
  rms(total) = 0.85563E-05    rms(broyden)= 0.85560E-05
  rms(prec ) = 0.97593E-05
  weight for this iteration     100.00

 eigenvalues of (default mixing * dielectric matrix)
  average eigenvalue GAMMA=   2.0372
  9.4734  8.0617  3.3551  2.5905  2.2947  2.2947  2.0683  1.5788  1.4523  1.0750
  1.0750  0.9760  0.9760  0.8424  0.7910  0.7137  0.6813  0.6118  0.6118  0.6288
  0.6288

 Free energy of the ion-electron system (eV)
  ---------------------------------------------------
  alpha Z        PSCENC =         5.71901471
  Ewald energy   TEWEN  =      3283.86615406
  -Hartree energ DENC   =     -5164.77291993
  -exchange      EXHF   =         0.00000000
  -V(xc)+E(xc)   XCENC  =      -305.63627475
  PAW double counting   =      2803.83217965    -2396.44215220
  entropy T*S    EENTRO =        -0.00000000
  eigenvalues    EBANDS =      -446.70114182
  atomic energy  EATOM  =      2217.44617414
  Solvation  Ediel_sol  =         0.00000000
  ---------------------------------------------------
  free energy    TOTEN  =        -2.68896614 eV

  energy without entropy =       -2.68896614  energy(sigma->0) =       -2.68896614


--------------------------------------------------------------------------------------------------------




----------------------------------------- Iteration    1(  27)  ---------------------------------------


    POTLOK:  cpu time    9.7597: real time    9.7593
    SETDIJ:  cpu time    0.0243: real time    0.0243
     EDDAV:  cpu time    3.9758: real time    3.9766
       DOS:  cpu time    0.0042: real time    0.0042
    CHARGE:  cpu time    0.5593: real time    0.5594
    MIXING:  cpu time    0.0201: real time    0.0201
    --------------------------------------------
      LOOP:  cpu time   14.3461: real time   14.3673

 eigenvalue-minimisations  :   600
 total energy-change (2. order) :-0.1973525E-05  (-0.5173765E-07)
 number of electron      52.0000000 magnetization       0.0000103
 augmentation part      -13.1468494 magnetization       0.0000086

 Broyden mixing:
  rms(total) = 0.56243E-05    rms(broyden)= 0.56242E-05
  rms(prec ) = 0.66637E-05
  weight for this iteration     100.00

 eigenvalues of (default mixing * dielectric matrix)
  average eigenvalue GAMMA=   2.0399
  9.4732  8.5181  3.4361  2.6498  2.6498  2.2813  1.8630  1.6403  1.6403  1.1897
  1.0791  1.0791  0.9558  0.9558  0.8592  0.7587  0.7021  0.6549  0.6145  0.6145
  0.6407  0.6223

 Free energy of the ion-electron system (eV)
  ---------------------------------------------------
  alpha Z        PSCENC =         5.71901471
  Ewald energy   TEWEN  =      3283.86615406
  -Hartree energ DENC   =     -5164.77206046
  -exchange      EXHF   =         0.00000000
  -V(xc)+E(xc)   XCENC  =      -305.63627943
  PAW double counting   =      2803.83432501    -2396.44429689
  entropy T*S    EENTRO =        -0.00000000
  eigenvalues    EBANDS =      -446.70199926
  atomic energy  EATOM  =      2217.44617414
  Solvation  Ediel_sol  =         0.00000000
  ---------------------------------------------------
  free energy    TOTEN  =        -2.68896812 eV

  energy without entropy =       -2.68896812  energy(sigma->0) =       -2.68896812


--------------------------------------------------------------------------------------------------------




----------------------------------------- Iteration    1(  28)  ---------------------------------------


    POTLOK:  cpu time    9.7544: real time    9.7543
    SETDIJ:  cpu time    0.0257: real time    0.0257
     EDDAV:  cpu time    3.8660: real time    3.8657
       DOS:  cpu time    0.0043: real time    0.0043
    CHARGE:  cpu time    0.5662: real time    0.5662
    MIXING:  cpu time    0.0210: real time    0.0210
[...]
      1     -16.6197      1.00000
      2     -15.4875      1.00000
      3     -15.2920      1.00000
      4     -15.2919      1.00000
      5     -15.2069      1.00000
      6     -15.2068      1.00000
      7     -14.3984      1.00000
      8     -13.0886      1.00000
      9      -7.2555      1.00000
     10      -7.2555      1.00000
     11      -7.2135      1.00000
     12      -6.4975      1.00000
     13      -6.4975      1.00000
     14      -6.2329      1.00000
     15      -5.5596      1.00000
     16      -5.1940      1.00000
     17      -5.1940      1.00000
     18      -5.0393      1.00000
     19      -5.0393      1.00000
     20      -4.8509      1.00000
     21      -4.6575      1.00000
     22      -4.6338      1.00000
     23      -4.4596      1.00000
     24      -4.4596      1.00000
     25      -4.3966      1.00000
     26      -4.3966      1.00000
     27      -1.7692      0.00000
     28      -1.4807      0.00000
     29      -1.4807      0.00000
     30      -0.8771      0.00000
     31      -0.8771      0.00000
     32      -0.4120      0.00000
     33       1.2546      0.00000
     34       1.6075      0.00000
     35       1.9963      0.00000
     36       2.4358      0.00000
     37       2.8131      0.00000
     38       3.1812      0.00000
     39       3.1813      0.00000
     40       3.3051      0.00000

 k-point     2 :       0.2500    0.0000    0.0000
  band No.  band energies     occupation 
      1     -16.5081      1.00000
      2     -15.6131      1.00000
      3     -15.4382      1.00000
      4     -15.3349      1.00000
      5     -15.2238      1.00000
      6     -15.2178      1.00000
      7     -14.0791      1.00000
      8     -13.1742      1.00000
      9      -7.3633      1.00000
     10      -7.1793      1.00000
     11      -7.0531      1.00000
     12      -6.5578      1.00000
     13      -6.3340      1.00000
     14      -6.1394      1.00000
     15      -5.5078      1.00000
     16      -5.2287      1.00000
     17      -5.2205      1.00000
     18      -5.1615      1.00000
     19      -5.0928      1.00000
     20      -4.9673      1.00000
     21      -4.7030      1.00000
     22      -4.6962      1.00000
     23      -4.6581      1.00000
     24      -4.4809      1.00000
     25      -4.3578      1.00000
     26      -4.3172      1.00000
     27      -1.5796      0.00000
     28      -1.4262      0.00000
     29      -1.2728      0.00000
     30      -0.9592      0.00000
     31      -0.8675      0.00000
     32      -0.6384      0.00000
     33       1.5824      0.00000
     34       1.7318      0.00000
     35       2.2450      0.00000
     36       2.2746      0.00000
     37       2.6020      0.00000
     38       2.6598      0.00000
     39       2.9592      0.00000
     40       3.0218      0.00000

 k-point     3 :       0.5000    0.0000    0.0000
  band No.  band energies     occupation 
      1     -16.3022      1.00000
      2     -15.9560      1.00000
      3     -15.3737      1.00000
      4     -15.3512      1.00000
      5     -15.2709      1.00000
      6     -15.2444      1.00000
      7     -13.7521      1.00000
      8     -13.3361      1.00000
      9      -7.4544      1.00000
     10      -6.8583      1.00000
     11      -6.8156      1.00000
     12      -6.6948      1.00000
     13      -6.6049      1.00000
     14      -5.9503      1.00000
     15      -5.6751      1.00000
     16      -5.3737      1.00000
     17      -5.2127      1.00000
     18      -5.0932      1.00000
     19      -4.9727      1.00000
     20      -4.8948      1.00000
     21      -4.8263      1.00000
     22      -4.6895      1.00000
     23      -4.6748      1.00000
     24      -4.4808      1.00000
     25      -4.4594      1.00000
     26      -4.3874      1.00000
     27      -1.5739      0.00000
     28      -1.2971      0.00000
     29      -1.0788      0.00000
     30      -1.0235      0.00000
     31      -0.8896      0.00000
     32      -0.8317      0.00000
     33       1.7616      0.00000
     34       1.9555      0.00000
     35       2.2006      0.00000
     36       2.2542      0.00000
     37       2.3510      0.00000
     38       2.7688      0.00000
     39       2.7796      0.00000
     40       2.8254      0.00000

 k-point     4 :       0.2500    0.2500    0.0000
  band No.  band energies     occupation 
      1     -16.3098      1.00000
      2     -15.9328      1.00000
      3     -15.4118      1.00000
      4     -15.3602      1.00000
      5     -15.2754      1.00000
      6     -15.2111      1.00000
      7     -13.7391      1.00000
      8     -13.3465      1.00000
      9      -7.2643      1.00000
     10      -7.2400      1.00000
     11      -6.8392      1.00000
     12      -6.6344      1.00000
     13      -6.2713      1.00000
     14      -6.1990      1.00000
     15      -5.6154      1.00000
     16      -5.3859      1.00000
     17      -5.1317      1.00000
     18      -5.0785      1.00000
     19      -5.0294      1.00000
     20      -4.8928      1.00000
     21      -4.8920      1.00000
     22      -4.6764      1.00000
     23      -4.5953      1.00000
     24      -4.5001      1.00000
     25      -4.4462      1.00000
     26      -4.4054      1.00000
     27      -1.5455      0.00000
     28      -1.3378      0.00000
     29      -1.1267      0.00000
     30      -1.1154      0.00000
     31      -0.8840      0.00000
     32      -0.7269      0.00000
     33       1.9513      0.00000
     34       1.9651      0.00000
     35       2.0152      0.00000
     36       2.1332      0.00000
     37       2.4508      0.00000
     38       2.6733      0.00000
     39       2.6935      0.00000
     40       2.7503      0.00000


--------------------------------------------------------------------------------------------------------


 soft charge-density along one line, spin component           1
         0         1         2         3         4         5         6         7         8         9
 total charge-density along one line
 
 soft charge-density along one line, spin component           2
         0         1         2         3         4         5         6         7         8         9
 total charge-density along one line
 
 pseudopotential strength for first ion, spin component:           1
 52.222  59.644   0.000  -0.000  -0.000   0.000  -0.000  -0.000
 59.644  68.143   0.000  -0.000  -0.000   0.000  -0.000  -0.000
  0.000   0.000  10.978   0.000   0.000   9.345   0.000   0.000
 -0.000  -0.000   0.000  10.976  -0.000   0.000   9.344  -0.000
 -0.000  -0.000   0.000  -0.000  10.978   0.000  -0.000   9.345
  0.000   0.000   9.345   0.000   0.000   8.037   0.000   0.000
 -0.000  -0.000   0.000   9.344  -0.000   0.000   8.036  -0.000
 -0.000  -0.000   0.000  -0.000   9.345   0.000  -0.000   8.037
  0.000   0.000  -0.000   0.000  -0.001  -0.000   0.000  -0.001
  0.000   0.000  -0.000   0.000   0.000  -0.000   0.000   0.000
 -0.001  -0.001  -0.000  -0.000  -0.000  -0.000  -0.000  -0.000
 -0.000  -0.000   0.000  -0.000  -0.000   0.000  -0.000  -0.000
 -0.000  -0.000  -0.001  -0.000   0.000  -0.001  -0.000   0.000
 pseudopotential strength for first ion, spin component:           2
 52.222  59.644   0.000  -0.000  -0.000   0.000  -0.000  -0.000
 59.644  68.143   0.000  -0.000  -0.000   0.000  -0.000  -0.000
  0.000   0.000  10.978   0.000   0.000   9.345   0.000   0.000
 -0.000  -0.000   0.000  10.976  -0.000   0.000   9.344  -0.000
 -0.000  -0.000   0.000  -0.000  10.978   0.000  -0.000   9.345
  0.000   0.000   9.345   0.000   0.000   8.037   0.000   0.000
 -0.000  -0.000   0.000   9.344  -0.000   0.000   8.036  -0.000
 -0.000  -0.000   0.000  -0.000   9.345   0.000  -0.000   8.037
  0.000   0.000  -0.000   0.000  -0.001  -0.000   0.000  -0.001
  0.000   0.000  -0.000   0.000   0.000  -0.000   0.000   0.000
 -0.001  -0.001  -0.000  -0.000  -0.000  -0.000  -0.000  -0.000
 -0.000  -0.000   0.000  -0.000  -0.000   0.000  -0.000  -0.000
 -0.000  -0.000  -0.001  -0.000   0.000  -0.001  -0.000   0.000
 total augmentation occupancy for first ion, spin component:           1
  5.672  -4.077   0.000   0.000   0.000   0.000   0.000   0.000   0.000   0.000   0.010   0.000  -0.000
 -4.077   4.497   0.000  -0.000   0.000   0.000   0.000   0.000   0.000   0.000  -0.012   0.000   0.000
  0.000   0.000   0.433   0.000   0.000   0.146   0.000   0.000   0.000   0.000   0.000   0.000  -0.002
  0.000   0.000   0.000   0.430   0.000   0.000   0.145  -0.000   0.000  -0.000   0.000   0.000  -0.000
  0.000   0.000   0.000   0.000   0.433   0.000   0.000   0.146  -0.002  -0.000  -0.000   0.000   0.000
  0.000   0.000   0.146   0.000   0.000   0.102   0.000   0.000   0.000   0.000   0.000  -0.000  -0.002
  0.000   0.000   0.000   0.145   0.000   0.000   0.103  -0.000   0.000   0.000  -0.000  -0.000   0.000
  0.000   0.000   0.000   0.000   0.146   0.000   0.000   0.102  -0.002   0.000   0.000   0.000   0.000
  0.000   0.000   0.000   0.000  -0.002   0.000   0.000  -0.002   0.046  -0.039   0.000   0.000   0.000
  0.000   0.000  -0.000  -0.000  -0.000   0.000  -0.000   0.000  -0.039   0.075   0.000   0.000   0.000
  0.010  -0.012   0.000   0.000   0.000   0.000   0.000   0.000   0.000   0.000   0.019  -0.000  -0.000
  0.000   0.000   0.000   0.000   0.000  -0.000   0.000   0.000   0.000   0.000  -0.000   0.075   0.039
 -0.000   0.000  -0.002  -0.000   0.000  -0.002   0.000   0.000   0.000   0.000  -0.000   0.039   0.046
 total augmentation occupancy for first ion, spin component:           2
 -0.000   0.000  -0.000  -0.000   0.000   0.000   0.000  -0.000   0.000   0.000   0.000   0.000  -0.000
  0.000  -0.000   0.000   0.000   0.000   0.000  -0.000   0.000   0.000  -0.000  -0.000   0.000   0.000
  0.000   0.000   0.000   0.000  -0.000  -0.000   0.000   0.000   0.000  -0.000  -0.000   0.000   0.000
 -0.000   0.000   0.000  -0.000  -0.000   0.000   0.000  -0.000  -0.000   0.000   0.000  -0.000   0.000
  0.000   0.000   0.000   0.000   0.000  -0.000   0.000  -0.000   0.000  -0.000  -0.000   0.000   0.000
  0.000   0.000  -0.000   0.000  -0.000  -0.000   0.000   0.000   0.000  -0.000   0.000  -0.000  -0.000
  0.000  -0.000   0.000   0.000   0.000  -0.000   0.000   0.000   0.000   0.000  -0.000   0.000  -0.000
 -0.000   0.000   0.000   0.000  -0.000   0.000  -0.000  -0.000  -0.000   0.000  -0.000  -0.000  -0.000
  0.000   0.000   0.000  -0.000   0.000   0.000   0.000  -0.000  -0.000   0.000   0.000  -0.000   0.000
  0.000   0.000  -0.000   0.000  -0.000  -0.000   0.000   0.000   0.000  -0.000   0.000  -0.000   0.000
  0.000  -0.000  -0.000   0.000   0.000   0.000  -0.000   0.000  -0.000   0.000  -0.000   0.000   0.000
  0.000   0.000   0.000   0.000   0.000  -0.000   0.000  -0.000   0.000   0.000   0.000  -0.000  -0.000
 -0.000   0.000   0.000   0.000   0.000  -0.000   0.000   0.000  -0.000  -0.000   0.000  -0.000  -0.000


------------------------ aborting loop because EDIFF is reached ----------------------------------------


 


 total charge     
 
# of ion     s       p       d       tot
----------------------------------------
  1        1.837   1.401   0.135   3.372
  2        1.837   1.401   0.135   3.372
  3        1.563   2.797   0.011   4.370
  4        1.561   2.784   0.011   4.356
  5        1.561   2.784   0.011   4.356
  6        1.562   2.788   0.011   4.360
  7        1.563   2.796   0.011   4.370
  8        1.562   2.788   0.011   4.360
------------------------------------------------
tot       13.046  19.537   0.334  32.917
 


 magnetization (x)
 
# of ion     s       p       d       tot
----------------------------------------
  1        0.000   0.000   0.000   0.000
  2        0.000   0.000   0.000   0.000
  3        0.000   0.000  -0.000   0.000
  4        0.000   0.000   0.000   0.000
  5       -0.000  -0.000  -0.000  -0.000
  6        0.000   0.000   0.000   0.000
  7       -0.000  -0.000   0.000  -0.000
  8       -0.000   0.000   0.000   0.000
------------------------------------------------
tot        0.000   0.000   0.000   0.000
 
    CHARGE:  cpu time    0.5572: real time    0.5571
    FORLOC:  cpu time    0.0191: real time    0.0191
    FORNL :  cpu time    0.6721: real time    0.6721
    STRESS:  cpu time    1.3886: real time    1.3886
    FORCOR:  cpu time    9.8375: real time    9.8373
    FORHAR:  cpu time    0.0734: real time    0.0734
    MIXING:  cpu time    0.0173: real time    0.0173
    OFIELD:  cpu time    0.0001: real time    0.0001

  FORCE on cell =-STRESS in cart. coord.  units (eV):
  Direction    XX          YY          ZZ          XY          YZ          ZX
  --------------------------------------------------------------------------------------
  Alpha Z     6.08707     6.08707     6.08707
  Ewald    4818.89236  4818.89378 -6095.69115    -0.00000     0.00000    -0.00001
  Hartree  5244.35070  5244.35039 -5057.72693     0.00000    -0.00000    -0.00000
  E(xc)    -210.62259  -210.62261  -209.35536    -0.00000     0.00000     0.00001
  Local  -11100.40405-11100.40455 10116.37256    -0.00000    -0.00000     0.00001
  n-local   990.33981   992.54789   990.91018     0.71110    -0.72704    -0.60389
  augment  -272.57786  -272.57786  -272.17768     0.00000    -0.00000    -0.00013
  Kinetic   523.16729   522.49096   521.56397    -0.51008     0.29738     0.41664
  Fock        0.00000     0.00000     0.00000     0.00000     0.00000     0.00000
  -------------------------------------------------------------------------------------
  Total      -0.00110    -0.00110    -0.01734     0.00000     0.00000     0.00000
  in kB      -0.00150    -0.00150    -0.02356     0.00000     0.00000     0.00000
  external pressure =       -0.01 kB  Pullay stress =        0.00 kB


 VOLUME and BASIS-vectors are now :
 -----------------------------------------------------------------------------
  energy-cutoff  :      500.00
  volume of cell :     1179.53
      direct lattice vectors                 reciprocal lattice vectors
     3.794420261 -6.572128369  0.000000000     0.131772436 -0.076078855  0.000000000
     3.794420261  6.572128369  0.000000000     0.131772436  0.076078855  0.000000000
     0.000000000  0.000000000 23.649804000     0.000000000  0.000000000  0.042283649

  length of vectors
     7.588840254  7.588840254 23.649804000     0.152157704  0.152157704  0.042283649


 FORCES acting on ions
    electron-ion (+dipol)            ewald-force                    non-local-force                 convergence-correction
 -----------------------------------------------------------------------------------------------
   0.524E-04 -.213E-02 0.367E-03   0.576E-10 -.464E-03 0.415E-03   0.867E-18 -.173E-17 0.108E-18   0.516E-12 -.319E-10 -.720E-09
   0.524E-04 0.213E-02 0.367E-03   0.576E-10 0.464E-03 0.415E-03   -.867E-18 0.173E-17 0.108E-18   0.510E-12 0.319E-10 -.720E-09
   0.134E+02 0.232E+02 0.272E+03   -.143E+02 -.248E+02 -.275E+03   0.880E+00 0.152E+01 0.230E+01   -.154E-06 -.267E-06 0.352E-05
   -.268E+02 -.116E-10 0.272E+03   0.286E+02 -.124E-13 -.275E+03   -.176E+01 0.278E-16 0.230E+01   0.308E-06 0.186E-14 0.352E-05
   0.268E+02 0.641E-11 -.272E+03   -.286E+02 0.572E-14 0.275E+03   0.176E+01 -.278E-16 -.230E+01   -.308E-06 0.680E-14 -.352E-05
   0.134E+02 -.232E+02 0.272E+03   -.143E+02 0.248E+02 -.275E+03   0.880E+00 -.152E+01 0.230E+01   -.154E-06 0.267E-06 0.352E-05
   -.134E+02 -.232E+02 -.272E+03   0.143E+02 0.248E+02 0.275E+03   -.880E+00 -.152E+01 -.230E+01   0.154E-06 0.267E-06 -.352E-05
   -.134E+02 0.232E+02 -.272E+03   0.143E+02 -.248E+02 0.275E+03   -.880E+00 0.152E+01 -.230E+01   0.154E-06 -.267E-06 -.352E-05
 -----------------------------------------------------------------------------------------------
   0.411E-04 -.581E-11 0.553E-01   0.000E+00 0.355E-14 -.568E-13   0.444E-15 -.666E-15 0.000E+00   -.132E-11 0.987E-14 -.896E-08
 
 
 POSITION                                       TOTAL-FORCE (eV/Angst)
 -----------------------------------------------------------------------------------
      3.79442     -2.19070      1.82491        -0.000000      0.000000      0.000000
      3.79442      2.19070      1.82491        -0.000000      0.000000      0.000000
      1.27619      2.21043     -0.00246         0.000110      0.000191     -0.000408
      5.03646      0.00000     -0.00246        -0.000220      0.000000     -0.000408
      2.55238      0.00000      3.65226         0.000220      0.000000      0.000408
      1.27619     -2.21043     -0.00246         0.000110     -0.000191     -0.000408
      2.51823      4.36170      3.65226        -0.000110     -0.000191      0.000408
      2.51823     -4.36170      3.65226        -0.000110      0.000191      0.000408
 -----------------------------------------------------------------------------------
    total drift:                                0.000041     -0.000000      0.055333


--------------------------------------------------------------------------------------------------------



  FREE ENERGIE OF THE ION-ELECTRON SYSTEM (eV)
  ---------------------------------------------------
  free  energy   TOTEN  =        -2.75646456 eV

  energy  without entropy=       -2.75646456  energy(sigma->0) =       -2.75646456
 
 d Force = 0.2016065E-05[-0.340E-06, 0.437E-05]  d Energy =-0.7860390E-04 0.806E-04
 d Force =-0.3707752E+00[-0.371E+00,-0.371E+00]  d Ewald  =-0.1903068E+01 0.153E+01


--------------------------------------------------------------------------------------------------------


    POTLOK:  cpu time    9.8565: real time    9.8560


--------------------------------------------------------------------------------------------------------




--------------------------------------------------------------------------------------------------------


  
 reached required accuracy - stopping structural energy minimisation
     LOOP+:  cpu time  275.4360: real time  275.7412
    4ORBIT:  cpu time    0.0000: real time    0.0000
 


 total charge     
 
# of ion     s       p       d       tot
----------------------------------------
  1        1.837   1.401   0.135   3.372
  2        1.837   1.401   0.135   3.372
  3        1.563   2.797   0.011   4.370
  4        1.561   2.784   0.011   4.356
  5        1.561   2.784   0.011   4.356
  6        1.562   2.788   0.011   4.360
  7        1.563   2.796   0.011   4.370
  8        1.562   2.788   0.011   4.360
------------------------------------------------
tot       13.046  19.537   0.334  32.917
 


 magnetization (x)
 
# of ion     s       p       d       tot
----------------------------------------
  1        0.000   0.000   0.000   0.000
  2        0.000   0.000   0.000   0.000
  3        0.000   0.000  -0.000   0.000
  4        0.000   0.000   0.000   0.000
  5       -0.000  -0.000  -0.000  -0.000
  6        0.000   0.000   0.000   0.000
  7       -0.000  -0.000   0.000  -0.000
  8       -0.000   0.000   0.000   0.000
------------------------------------------------
tot        0.000   0.000   0.000   0.000
 

 total amount of memory used by VASP on root node    80243. kBytes
========================================================================

   base      :      30000. kBytes
   nonl-proj :       7687. kBytes
   fftplans  :      10505. kBytes
   grid      :      26874. kBytes
   one-center:         32. kBytes
   wavefun   :       5145. kBytes
 
  
  
 General timing and accounting informations for this job:
 ========================================================
  
                  Total CPU time used (sec):     6786.201
                            User time (sec):     6428.068
                          System time (sec):      358.132
                         Elapsed time (sec):     6826.770
  
                   Maximum memory used (kb):      303808.
                   Average memory used (kb):           0.
  
                          Minor page faults:      8444924
                          Major page faults:            5
                 Voluntary context switches:        11324
