       N       E                     dE             d eps       ncg     rms          rms(c)
DAV:   1     0.620493310805E+03    0.62049E+03   -0.32787E+04  2560   0.118E+03
DAV:   2     0.675186691016E+02   -0.55297E+03   -0.51806E+03  2848   0.255E+02
DAV:   3    -0.135980135158E+02   -0.81117E+02   -0.79944E+02  2960   0.107E+02
DAV:   4    -0.170051838926E+02   -0.34072E+01   -0.33580E+01  2824   0.269E+01
DAV:   5    -0.171292715802E+02   -0.12409E+00   -0.12392E+00  3096   0.501E+00    0.215E+01
DAV:   6    -0.194702517393E+02   -0.23410E+01   -0.68871E+01  2640   0.684E+01    0.308E+01
DAV:   7    -0.167928442375E+02    0.26774E+01   -0.75686E+00  2752   0.248E+01    0.160E+01
DAV:   8    -0.151843092800E+02    0.16085E+01   -0.88197E+00  2824   0.437E+01    0.729E+00
DAV:   9    -0.157651531021E+02   -0.58084E+00   -0.25583E+00  2824   0.696E+00    0.547E+00
DAV:  10    -0.193303202942E+03   -0.17754E+03   -0.15584E+03  3416   0.112E+01    0.194E+01
DAV:  11    -0.154448890906E+02    0.17786E+03   -0.12772E+03  2512   0.327E+01    0.438E+00
DAV:  12    -0.163293863823E+02   -0.88450E+00   -0.14569E+00  2584   0.525E+00    0.326E+00
DAV:  13    -0.167055003292E+02   -0.37611E+00   -0.50380E-01  2664   0.482E+00    0.270E+00
DAV:  14    -0.169250286052E+02   -0.21953E+00   -0.55033E-02  2736   0.163E+00    0.207E+00
DAV:  15    -0.171005814936E+02   -0.17555E+00   -0.74863E-02  2440   0.178E+00    0.115E+00
DAV:  16    -0.171110434254E+02   -0.10462E-01   -0.17614E-02  2616   0.661E-01    0.985E-01
DAV:  17    -0.171181533198E+02   -0.71099E-02   -0.28084E-03  2504   0.339E-01    0.885E-01
DAV:  18    -0.171197081604E+02   -0.15548E-02   -0.14513E-03  2392   0.308E-01    0.863E-01
DAV:  19    -0.171205520736E+02   -0.84391E-03   -0.10511E-03  2376   0.168E-01    0.864E-01
DAV:  20    -0.171227408907E+02   -0.21888E-02   -0.17501E-03  2336   0.212E-01    0.861E-01
DAV:  21    -0.171224786465E+02    0.26224E-03   -0.12088E-03  2344   0.173E-01    0.863E-01
DAV:  22    -0.171230659466E+02   -0.58730E-03   -0.26408E-04  2424   0.791E-02    0.861E-01
DAV:  23    -0.171254695211E+02   -0.24036E-02   -0.11079E-02  2272   0.334E-01    0.859E-01
DAV:  24    -0.171233481016E+02    0.21214E-02   -0.19847E-02  2304   0.562E-01    0.858E-01
DAV:  25    -0.171231981595E+02    0.14994E-03   -0.74179E-04  2288   0.117E-01    0.857E-01
DAV:  26    -0.171232738325E+02   -0.75673E-04   -0.38541E-05  2248   0.304E-02    0.857E-01
DAV:  27    -0.171234045570E+02   -0.13072E-03   -0.45531E-05  2184   0.329E-02    0.856E-01
DAV:  28    -0.171234573636E+02   -0.52807E-04   -0.61291E-05  2176   0.378E-02    0.855E-01
DAV:  29    -0.171234444506E+02    0.12913E-04   -0.56871E-05  2152   0.354E-02    0.854E-01
DAV:  30    -0.171236409642E+02   -0.19651E-03   -0.82416E-05  2120   0.411E-02    0.853E-01
DAV:  31    -0.171244942659E+02   -0.85330E-03   -0.26515E-04  2160   0.729E-02    0.852E-01
DAV:  32    -0.171236974030E+02    0.79686E-03   -0.21565E-04  2216   0.638E-02    0.852E-01
DAV:  33    -0.171245431580E+02   -0.84575E-03   -0.23628E-04  2152   0.695E-02    0.850E-01
DAV:  34    -0.171244484171E+02    0.94741E-04   -0.26086E-04  2168   0.770E-02    0.848E-01
DAV:  35    -0.171243408155E+02    0.10760E-03   -0.10790E-04  2176   0.481E-02    0.842E-01
DAV:  36    -0.171265590178E+02   -0.22182E-02   -0.28355E-03  2176   0.186E-01    0.832E-01
DAV:  37    -0.171265155364E+02    0.43481E-04   -0.37815E-03  2192   0.243E-01    0.821E-01
DAV:  38    -0.171424312169E+02   -0.15916E-01   -0.79646E-02  2240   0.749E-01    0.791E-01
DAV:  39    -0.171285519157E+02    0.13879E-01   -0.20488E-01  2216   0.179E+00    0.793E-01
DAV:  40    -0.171302016848E+02   -0.16498E-02   -0.70149E-04  2224   0.103E-01    0.785E-01
DAV:  41    -0.171349028615E+02   -0.47012E-02   -0.61717E-04  2280   0.121E-01    0.720E-01
DAV:  42    -0.171459239264E+02   -0.11021E-01   -0.29677E-03  2320   0.240E-01    0.616E-01
DAV:  43    -0.171548510139E+02   -0.89271E-02   -0.34009E-03  2296   0.266E-01    0.495E-01
DAV:  44    -0.171646828828E+02   -0.98319E-02   -0.45777E-04  2360   0.107E-01    0.384E-01
DAV:  45    -0.171718120435E+02   -0.71292E-02   -0.29450E-04  2336   0.867E-02    0.305E-01
DAV:  46    -0.171787335985E+02   -0.69216E-02   -0.23925E-04  2288   0.839E-02    0.233E-01
DAV:  47    -0.171913149526E+02   -0.12581E-01   -0.11227E-03  2336   0.187E-01    0.108E-01
DAV:  48    -0.171954577375E+02   -0.41428E-02   -0.34149E-04  2328   0.107E-01    0.627E-02
DAV:  49    -0.171967880689E+02   -0.13303E-02   -0.80366E-05  2296   0.527E-02    0.455E-02
DAV:  50    -0.171981786733E+02   -0.13906E-02   -0.20260E-04  2360   0.809E-02    0.225E-02
DAV:  51    -0.171985051669E+02   -0.32649E-03   -0.70106E-05  2248   0.450E-02    0.143E-02
DAV:  52    -0.171986072240E+02   -0.10206E-03   -0.34277E-05  2216   0.240E-02    0.115E-02
DAV:  53    -0.171987697844E+02   -0.16256E-03   -0.16482E-04  2520   0.466E-02    0.821E-03
DAV:  54    -0.171988162114E+02   -0.46427E-04   -0.12831E-04  2312   0.336E-02    0.754E-03
DAV:  55    -0.171988366227E+02   -0.20411E-04   -0.19938E-05  2176   0.138E-02    0.741E-03
DAV:  56    -0.171988558767E+02   -0.19254E-04   -0.23778E-05  2112   0.162E-02    0.713E-03
DAV:  57    -0.171988725974E+02   -0.16721E-04   -0.10791E-05  2000   0.105E-02    0.676E-03
DAV:  58    -0.171988830556E+02   -0.10458E-04   -0.21209E-05  1960   0.125E-02    0.657E-03
DAV:  59    -0.171988902258E+02   -0.71702E-05   -0.14580E-05  1952   0.102E-02    0.645E-03
DAV:  60    -0.171988955148E+02   -0.52890E-05   -0.16645E-05  1928   0.119E-02    0.631E-03
DAV:  61    -0.171989027909E+02   -0.72761E-05   -0.45078E-06  1920   0.799E-03    0.613E-03
DAV:  62    -0.171989095930E+02   -0.68021E-05   -0.74802E-06  1928   0.895E-03    0.594E-03
DAV:  63    -0.171989212614E+02   -0.11668E-04   -0.14345E-05  1928   0.108E-02    0.570E-03
DAV:  64    -0.171989287749E+02   -0.75136E-05   -0.38020E-06  1936   0.763E-03    0.556E-03
DAV:  65    -0.171989350492E+02   -0.62742E-05   -0.70572E-06  1920   0.902E-03    0.540E-03
DAV:  66    -0.171989381655E+02   -0.31163E-05   -0.12789E-05  1920   0.975E-03    0.529E-03
DAV:  67    -0.171989558092E+02   -0.17644E-04   -0.67525E-06  1920   0.940E-03    0.478E-03
DAV:  68    -0.171989716544E+02   -0.15845E-04   -0.63367E-06  1920   0.922E-03    0.442E-03
DAV:  69    -0.171989890768E+02   -0.17422E-04   -0.69548E-06  1920   0.938E-03    0.398E-03
DAV:  70    -0.171990013035E+02   -0.12227E-04   -0.85748E-06  1944   0.985E-03    0.351E-03
DAV:  71    -0.171990374872E+02   -0.36184E-04   -0.21226E-05  2072   0.154E-02    0.239E-03
DAV:  72    -0.171990512957E+02   -0.13808E-04   -0.27745E-05  1952   0.145E-02    0.200E-03
DAV:  73    -0.171990713883E+02   -0.20093E-04   -0.15804E-05  1960   0.124E-02    0.142E-03
DAV:  74    -0.171990861316E+02   -0.14743E-04   -0.25690E-05  1936   0.146E-02    0.102E-03
DAV:  75    -0.171990996871E+02   -0.13555E-04   -0.15266E-05  1936   0.119E-02    0.685E-04
DAV:  76    -0.171991127169E+02   -0.13030E-04   -0.16998E-05  1928   0.117E-02    0.565E-04
DAV:  77    -0.171991238902E+02   -0.11173E-04   -0.27800E-05  1928   0.135E-02    0.281E-04
DAV:  78    -0.171991339132E+02   -0.10023E-04   -0.10303E-05  1920   0.972E-03    0.946E-05
DAV:  79    -0.171991378546E+02   -0.39414E-05   -0.10041E-05  1920   0.930E-03    0.667E-05
DAV:  80    -0.171991387282E+02   -0.87351E-06   -0.28337E-06  1952   0.613E-03    0.643E-05
DAV:  81    -0.171991370927E+02    0.16354E-05   -0.31821E-06  1920   0.638E-03    0.599E-05
DAV:  82    -0.171991390114E+02   -0.19187E-05   -0.32996E-06  1920   0.569E-03    0.685E-05
DAV:  83    -0.171991374085E+02    0.16029E-05   -0.48975E-06  1912   0.538E-03    0.642E-05
DAV:  84    -0.171991376359E+02   -0.22738E-06   -0.23773E-06  1920   0.484E-03    0.636E-05
DAV:  85    -0.171991386882E+02   -0.10523E-05   -0.27469E-06  1920   0.582E-03    0.654E-05
DAV:  86    -0.171991395642E+02   -0.87599E-06   -0.32954E-06  1920   0.573E-03    0.626E-05
DAV:  87    -0.171991403864E+02   -0.82225E-06   -0.68482E-06  1920   0.828E-03    0.658E-05
DAV:  88    -0.171991391875E+02    0.11989E-05   -0.47475E-06  1920   0.730E-03    0.647E-05
DAV:  89    -0.171991384263E+02    0.76114E-06   -0.40035E-06  1920   0.614E-03    0.636E-05
DAV:  90    -0.171991389172E+02   -0.49088E-06   -0.24539E-06  1920   0.584E-03    0.639E-05
DAV:  91    -0.171991386769E+02    0.24027E-06   -0.32426E-06  1920   0.634E-03    0.608E-05
DAV:  92    -0.171991379897E+02    0.68728E-06   -0.30189E-06  1920   0.561E-03    0.599E-05
DAV:  93    -0.171991382375E+02   -0.24786E-06   -0.20051E-06  1920   0.541E-03    0.582E-05
DAV:  94    -0.171991383422E+02   -0.10472E-06   -0.37896E-06  1920   0.644E-03    0.591E-05
DAV:  95    -0.171991385848E+02   -0.24252E-06   -0.37241E-06  1920   0.637E-03    0.580E-05
DAV:  96    -0.171991399606E+02   -0.13758E-05   -0.45502E-06  1920   0.779E-03    0.551E-05
DAV:  97    -0.171991389479E+02    0.10127E-05   -0.48572E-06  1920   0.784E-03    0.500E-05
DAV:  98    -0.171991380486E+02    0.89939E-06   -0.50033E-06  1920   0.709E-03    0.530E-05
DAV:  99    -0.171991385185E+02   -0.46996E-06   -0.27757E-06  1920   0.557E-03    0.518E-05
DAV: 100    -0.171991385818E+02   -0.63278E-07   -0.37657E-06  1920   0.661E-03    0.505E-05
DAV: 101    -0.171991375777E+02    0.10041E-05   -0.50867E-06  1920   0.728E-03    0.511E-05
DAV: 102    -0.171991382659E+02   -0.68815E-06   -0.18563E-06  1920   0.448E-03    0.508E-05
DAV: 103    -0.171991385286E+02   -0.26271E-06   -0.71706E-07  1768   0.231E-03    0.502E-05
DAV: 104    -0.171991381577E+02    0.37093E-06   -0.48928E-06  1920   0.694E-03    0.515E-05
DAV: 105    -0.171991392651E+02   -0.11074E-05   -0.40150E-06  1920   0.638E-03    0.499E-05
DAV: 106    -0.171991377850E+02    0.14801E-05   -0.57086E-06  1920   0.785E-03    0.460E-05
DAV: 107    -0.171991356298E+02    0.21552E-05   -0.99288E-06  1936   0.846E-03    0.436E-05
DAV: 108    -0.171991365166E+02   -0.88683E-06   -0.36169E-06  1920   0.676E-03    0.407E-05
DAV: 109    -0.171991361764E+02    0.34021E-06   -0.27795E-06  1920   0.599E-03    0.470E-05
DAV: 110    -0.171991369358E+02   -0.75936E-06   -0.89869E-07  1904   0.371E-03    0.441E-05
DAV: 111    -0.171991377539E+02   -0.81809E-06   -0.19146E-06  1920   0.523E-03    0.445E-05
DAV: 112    -0.171991379529E+02   -0.19900E-06   -0.14798E-06  1920   0.487E-03    0.447E-05
DAV: 113    -0.171991382220E+02   -0.26915E-06   -0.19610E-06  1920   0.538E-03    0.445E-05
DAV: 114    -0.171991390490E+02   -0.82698E-06   -0.21568E-06  1920   0.541E-03    0.429E-05
DAV: 115    -0.171991400394E+02   -0.99038E-06   -0.23541E-06  1920   0.497E-03    0.419E-05
DAV: 116    -0.171991402669E+02   -0.22759E-06   -0.23440E-06  1920   0.535E-03    0.433E-05
DAV: 117    -0.171991409378E+02   -0.67085E-06   -0.30214E-06  1920   0.570E-03    0.363E-05
DAV: 118    -0.171991403183E+02    0.61947E-06   -0.34513E-06  1920   0.649E-03    0.373E-05
DAV: 119    -0.171991400585E+02    0.25983E-06   -0.19214E-06  1920   0.512E-03    0.350E-05
DAV: 120    -0.171991386794E+02    0.13791E-05   -0.20808E-06  1920   0.543E-03    0.381E-05
DAV: 121    -0.171991389474E+02   -0.26799E-06   -0.24332E-06  1920   0.576E-03    0.392E-05
DAV: 122    -0.171991378580E+02    0.10894E-05   -0.37329E-06  1920   0.613E-03    0.415E-05
DAV: 123    -0.171991377934E+02    0.64632E-07   -0.46515E-07  1808   0.256E-03
   1 F= -.17199138E+02 E0= -.17196746E+02  d E =-.171991E+02  mag=     0.0000
       N       E                     dE             d eps       ncg     rms          rms(c)
DAV:   1    -0.302334707447E+02   -0.13034E+02   -0.27293E+02  2704   0.172E+02    0.429E+01
DAV:   2    -0.219965819917E+02    0.82369E+01   -0.72603E+01  2496   0.749E+01    0.357E+01
DAV:   3    -0.262007414625E+02   -0.42042E+01   -0.27989E+02  2576   0.766E+01    0.254E+01
DAV:   4    -0.217418114879E+02    0.44589E+01   -0.12978E+01  2872   0.311E+01    0.125E+01
DAV:   5    -0.363073121923E+02   -0.14566E+02   -0.72019E-01  2960   0.490E+00    0.151E+01
DAV:   6    -0.220512309118E+02    0.14256E+02   -0.43242E+02  2656   0.164E+01    0.127E+01
DAV:   7    -0.223628163261E+02   -0.31159E+00   -0.15109E-02  2496   0.121E+00    0.130E+01
DAV:   8    -0.225944952145E+02   -0.23168E+00   -0.17936E-02  2576   0.112E+00    0.134E+01
DAV:   9    -0.190433887738E+02    0.35511E+01   -0.48804E+00  2800   0.224E+01    0.711E+00
DAV:  10    -0.184004883908E+02    0.64290E+00   -0.36087E+00  2808   0.223E+01    0.290E+00
DAV:  11    -0.185048262686E+02   -0.10434E+00   -0.95114E-01  2488   0.658E+00    0.253E+00
DAV:  12    -0.185040431869E+02    0.78308E-03   -0.65156E-02  2696   0.258E+00    0.217E+00
DAV:  13    -0.185915485273E+02   -0.87505E-01   -0.35521E-01  2616   0.671E+00    0.258E+00
DAV:  14    -0.185506403649E+02    0.40908E-01   -0.99228E-02  2424   0.220E+00    0.206E+00
DAV:  15    -0.185112491322E+02    0.39391E-01   -0.81421E-02  2480   0.262E+00    0.149E+00
DAV:  16    -0.185103427751E+02    0.90636E-03   -0.14039E-02  2288   0.441E-01    0.146E+00
DAV:  17    -0.185108837960E+02   -0.54102E-03   -0.19123E-03  2304   0.380E-01    0.142E+00
DAV:  18    -0.185139176860E+02   -0.30339E-02   -0.39853E-03  2592   0.633E-01    0.138E+00
DAV:  19    -0.185126711380E+02    0.12465E-02   -0.13534E-03  2440   0.148E-01    0.138E+00
DAV:  20    -0.185098669912E+02    0.28041E-02   -0.24945E-04  2504   0.691E-02    0.137E+00
DAV:  21    -0.185059913347E+02    0.38757E-02   -0.18077E-04  2624   0.499E-02    0.135E+00
DAV:  22    -0.185027767688E+02    0.32146E-02   -0.10584E-04  2456   0.452E-02    0.134E+00
DAV:  23    -0.184926119788E+02    0.10165E-01   -0.24209E-04  2376   0.619E-02    0.132E+00
DAV:  24    -0.184847352566E+02    0.78767E-02   -0.20569E-04  2360   0.964E-02    0.130E+00
DAV:  25    -0.184696315171E+02    0.15104E-01   -0.30399E-04  2384   0.102E-01    0.127E+00
DAV:  26    -0.184517265520E+02    0.17905E-01   -0.28654E-04  2320   0.551E-02    0.123E+00
DAV:  27    -0.184453188222E+02    0.64077E-02   -0.26546E-03  2440   0.159E-01    0.121E+00
DAV:  28    -0.184492676568E+02   -0.39488E-02   -0.45132E-03  2312   0.249E-01    0.122E+00
DAV:  29    -0.184411966393E+02    0.80710E-02   -0.57321E-04  2304   0.929E-02    0.120E+00
DAV:  30    -0.107880049579E+03   -0.89439E+02   -0.88499E+02  2656   0.398E-02    0.175E+01
DAV:  31    -0.356283317620E+03   -0.24840E+03   -0.51031E+03  2824   0.287E+01    0.169E+01
DAV:  32    -0.176737289700E+02    0.33861E+03   -0.14631E+03  2456   0.246E+01    0.305E+00
DAV:  33    -0.213315644575E+02   -0.36578E+01   -0.39832E-02  2520   0.115E+00    0.845E+00
DAV:  34    -0.934931737457E+02   -0.72162E+02   -0.11545E+03  2608   0.164E+01    0.145E+01
DAV:  35    -0.177172609912E+02    0.75776E+02   -0.11971E+03  2408   0.341E+01    0.204E+00
DAV:  36    -0.183814995531E+02   -0.66424E+00   -0.22675E+00  2320   0.232E+00    0.126E+00
DAV:  37    -0.184017853953E+02   -0.20286E-01   -0.88111E-02  2480   0.587E-01    0.112E+00
DAV:  38    -0.183802268095E+02    0.21559E-01   -0.38201E-03  2760   0.175E-01    0.104E+00
DAV:  39    -0.183694034366E+02    0.10823E-01   -0.28960E-04  2536   0.968E-02    0.101E+00
DAV:  40    -0.183687594219E+02    0.64401E-03   -0.10226E-04  2432   0.592E-02    0.100E+00
DAV:  41    -0.183604871888E+02    0.82722E-02   -0.66914E-05  2400   0.370E-02    0.975E-01
DAV:  42    -0.183466560829E+02    0.13831E-01   -0.13892E-04  2544   0.564E-02    0.927E-01
DAV:  43    -0.183359228648E+02    0.10733E-01   -0.85611E-05  2544   0.306E-02    0.890E-01
DAV:  44    -0.183086362671E+02    0.27287E-01   -0.46416E-04  2512   0.528E-02    0.788E-01
DAV:  45    -0.182875092999E+02    0.21127E-01   -0.36579E-04  2736   0.571E-02    0.697E-01
DAV:  46    -0.182596139656E+02    0.27895E-01   -0.83106E-04  2432   0.830E-02    0.554E-01
DAV:  47    -0.182112950042E+02    0.48319E-01   -0.12162E-02  2544   0.280E-01    0.336E-02
DAV:  48    -0.182112971697E+02   -0.21655E-05   -0.65254E-04  2568   0.116E-01    0.326E-02
DAV:  49    -0.182112799837E+02    0.17186E-04   -0.65395E-05  2392   0.311E-02    0.324E-02
DAV:  50    -0.182113847019E+02   -0.10472E-03   -0.14388E-05  2344   0.238E-02    0.344E-02
DAV:  51    -0.182115730920E+02   -0.18839E-03   -0.21667E-05  2296   0.224E-02    0.362E-02
DAV:  52    -0.182116678592E+02   -0.94767E-04   -0.78927E-06  2264   0.184E-02    0.335E-02
DAV:  53    -0.182116552138E+02    0.12645E-04   -0.56540E-06  2016   0.117E-02    0.332E-02
DAV:  54    -0.182116544882E+02    0.72562E-06   -0.44511E-06  2032   0.999E-03    0.325E-02
DAV:  55    -0.182116435150E+02    0.10973E-04   -0.13211E-05  2104   0.139E-02    0.323E-02
DAV:  56    -0.182116340770E+02    0.94380E-05   -0.11885E-05  2040   0.156E-02    0.323E-02
DAV:  57    -0.182116330713E+02    0.10057E-05   -0.53334E-06  1968   0.103E-02    0.323E-02
DAV:  58    -0.182116417697E+02   -0.86984E-05   -0.40256E-06  1992   0.941E-03    0.323E-02
DAV:  59    -0.182116509274E+02   -0.91577E-05   -0.70146E-06  1976   0.125E-02    0.323E-02
DAV:  60    -0.182116530829E+02   -0.21554E-05   -0.68750E-06  1984   0.111E-02    0.323E-02
DAV:  61    -0.182116609200E+02   -0.78371E-05   -0.48256E-06  1952   0.103E-02    0.323E-02
DAV:  62    -0.182116694581E+02   -0.85381E-05   -0.34099E-06  1952   0.874E-03    0.323E-02
DAV:  63    -0.182116732798E+02   -0.38217E-05   -0.25923E-06  1936   0.760E-03    0.323E-02
DAV:  64    -0.182116823972E+02   -0.91174E-05   -0.31562E-06  1936   0.837E-03    0.322E-02
DAV:  65    -0.182116889312E+02   -0.65341E-05   -0.43214E-06  1920   0.911E-03    0.322E-02
DAV:  66    -0.182116990471E+02   -0.10116E-04   -0.91069E-06  1984   0.146E-02    0.322E-02
DAV:  67    -0.182117063871E+02   -0.73401E-05   -0.95311E-06  1984   0.149E-02    0.321E-02
DAV:  68    -0.182117006589E+02    0.57282E-05   -0.91501E-06  2024   0.130E-02    0.321E-02
DAV:  69    -0.182117047837E+02   -0.41247E-05   -0.43080E-06  1944   0.934E-03    0.321E-02
DAV:  70    -0.182117082302E+02   -0.34465E-05   -0.69217E-06  1968   0.108E-02    0.320E-02
DAV:  71    -0.182117121931E+02   -0.39630E-05   -0.90546E-06  1984   0.134E-02    0.318E-02
DAV:  72    -0.182118493645E+02   -0.13717E-03   -0.52886E-05  2344   0.413E-02    0.152E-02
DAV:  73    -0.182119105468E+02   -0.61182E-04   -0.13252E-05  2408   0.211E-02    0.194E-02
DAV:  74    -0.182118771654E+02    0.33381E-04   -0.28352E-05  2104   0.169E-02    0.195E-02
DAV:  75    -0.182118178699E+02    0.59296E-04   -0.35146E-05  2024   0.204E-02    0.184E-02
DAV:  76    -0.182117797985E+02    0.38071E-04   -0.50810E-06  1968   0.943E-03    0.186E-02
DAV:  77    -0.182120365038E+02   -0.25671E-03   -0.54025E-05  2344   0.389E-02    0.320E-03
DAV:  78    -0.182121444839E+02   -0.10798E-03   -0.79359E-05  2416   0.209E-02    0.179E-03
DAV:  79    -0.182121215425E+02    0.22941E-04   -0.15777E-04  2512   0.305E-02    0.901E-04
DAV:  80    -0.182121831702E+02   -0.61628E-04   -0.82121E-05  2208   0.242E-02    0.526E-04
DAV:  81    -0.182121959318E+02   -0.12762E-04   -0.22612E-04  2328   0.371E-02    0.270E-04
DAV:  82    -0.182122104388E+02   -0.14507E-04   -0.17173E-04  2232   0.330E-02    0.223E-04
DAV:  83    -0.182122187590E+02   -0.83201E-05   -0.18309E-04  2160   0.295E-02    0.129E-04
DAV:  84    -0.182122276871E+02   -0.89282E-05   -0.24718E-05  2096   0.149E-02    0.102E-04
DAV:  85    -0.182122334292E+02   -0.57421E-05   -0.20419E-05  2192   0.108E-02    0.921E-05
DAV:  86    -0.182122369320E+02   -0.35027E-05   -0.90478E-05  2120   0.226E-02    0.718E-05
DAV:  87    -0.182122341561E+02    0.27758E-05   -0.73335E-06  2072   0.919E-03    0.614E-05
DAV:  88    -0.182122312608E+02    0.28954E-05   -0.37544E-06  1936   0.747E-03    0.500E-05
DAV:  89    -0.182122278532E+02    0.34075E-05   -0.33453E-06  1936   0.728E-03    0.399E-05
DAV:  90    -0.182122254886E+02    0.23646E-05   -0.35769E-06  1928   0.781E-03    0.347E-05
DAV:  91    -0.182122239559E+02    0.15327E-05   -0.35005E-06  1928   0.733E-03    0.329E-05
DAV:  92    -0.182122226270E+02    0.13289E-05   -0.29716E-06  1920   0.691E-03    0.299E-05
DAV:  93    -0.182122214123E+02    0.12147E-05   -0.37475E-06  1920   0.723E-03    0.332E-05
DAV:  94    -0.182122216635E+02   -0.25125E-06   -0.66581E-06  1920   0.919E-03    0.297E-05
DAV:  95    -0.182122226039E+02   -0.94036E-06   -0.67600E-06  1928   0.994E-03    0.309E-05
DAV:  96    -0.182122218084E+02    0.79551E-06   -0.34361E-06  1960   0.790E-03    0.298E-05
DAV:  97    -0.182122205660E+02    0.12424E-05   -0.38205E-06  1920   0.768E-03    0.292E-05
DAV:  98    -0.182122199989E+02    0.56707E-06   -0.38427E-06  1920   0.799E-03    0.295E-05
DAV:  99    -0.182122190304E+02    0.96845E-06   -0.27238E-06  1920   0.624E-03    0.294E-05
DAV: 100    -0.182122194332E+02   -0.40277E-06   -0.20770E-06  1920   0.574E-03    0.289E-05
DAV: 101    -0.182122197536E+02   -0.32035E-06   -0.35852E-06  1920   0.698E-03    0.301E-05
DAV: 102    -0.182122192521E+02    0.50150E-06   -0.42136E-06  1920   0.724E-03    0.290E-05
DAV: 103    -0.182122192481E+02    0.39836E-08   -0.26697E-06  1920   0.676E-03    0.294E-05
DAV: 104    -0.182122190846E+02    0.16344E-06   -0.11852E-06  1920   0.442E-03    0.290E-05
DAV: 105    -0.182122191186E+02   -0.34002E-07   -0.12575E-06  1920   0.461E-03    0.290E-05
DAV: 106    -0.182122196281E+02   -0.50944E-06   -0.13779E-06  1920   0.481E-03    0.295E-05
DAV: 107    -0.182122201492E+02   -0.52118E-06   -0.29479E-06  1920   0.704E-03    0.295E-05
DAV: 108    -0.182122193065E+02    0.84278E-06   -0.25688E-06  1920   0.643E-03    0.290E-05
DAV: 109    -0.182122191169E+02    0.18957E-06   -0.16078E-06  1920   0.485E-03    0.291E-05
DAV: 110    -0.182122199245E+02   -0.80757E-06   -0.39708E-06  1920   0.710E-03    0.294E-05
DAV: 111    -0.182122195195E+02    0.40500E-06   -0.42759E-06  1920   0.744E-03    0.290E-05
DAV: 112    -0.182122200307E+02   -0.51127E-06   -0.21513E-06  1920   0.593E-03    0.294E-05
DAV: 113    -0.182122191439E+02    0.88687E-06   -0.20127E-06  1920   0.558E-03    0.291E-05
DAV: 114    -0.182122194206E+02   -0.27678E-06   -0.19025E-06  1920   0.527E-03    0.289E-05
DAV: 115    -0.182122190408E+02    0.37983E-06   -0.22534E-06  1920   0.529E-03    0.289E-05
DAV: 116    -0.182122192917E+02   -0.25086E-06   -0.21089E-06  1920   0.529E-03    0.288E-05
DAV: 117    -0.182122194738E+02   -0.18214E-06   -0.16502E-06  1912   0.452E-03    0.289E-05
DAV: 118    -0.182122194639E+02    0.99180E-08   -0.14326E-06  1920   0.465E-03    0.289E-05
DAV: 119    -0.182122193170E+02    0.14691E-06   -0.76365E-07  1920   0.359E-03    0.288E-05
DAV: 120    -0.182122196305E+02   -0.31354E-06   -0.70017E-07  1920   0.328E-03    0.291E-05
DAV: 121    -0.182122192742E+02    0.35628E-06   -0.67237E-07  1880   0.280E-03    0.288E-05
DAV: 122    -0.182122194455E+02   -0.17125E-06   -0.16505E-06  1920   0.458E-03    0.291E-05
DAV: 123    -0.182122193404E+02    0.10513E-06   -0.13564E-06  1920   0.460E-03    0.288E-05
DAV: 124    -0.182122190248E+02    0.31559E-06   -0.10313E-06  1920   0.390E-03    0.290E-05
DAV: 125    -0.182122193680E+02   -0.34327E-06   -0.52516E-07  1920   0.294E-03    0.288E-05
DAV: 126    -0.182122193122E+02    0.55803E-07   -0.75332E-07  1920   0.355E-03
   2 F= -.18212219E+02 E0= -.18208395E+02  d E =-.101308E+01  mag=     0.0000
       N       E                     dE             d eps       ncg     rms          rms(c)
DAV:   1    -0.185902944783E+02   -0.37808E+00   -0.66452E+00  2384   0.248E+01    0.584E+00
DAV:   2    -0.185462556485E+02    0.44039E-01   -0.35080E+00  2400   0.274E+01    0.692E+00
DAV:   3    -0.183504384882E+02    0.19582E+00   -0.46250E+00  2488   0.149E+01    0.281E+00
DAV:   4    -0.182767135182E+02    0.73725E-01   -0.24120E-01  2672   0.686E+00    0.114E+00
DAV:   5    -0.182547390136E+02    0.21975E-01   -0.17772E-01  2856   0.454E+00    0.859E-01
DAV:   6    -0.182397338963E+02    0.15005E-01   -0.47516E-02  2800   0.169E+00    0.401E-01
DAV:   7    -0.182400793554E+02   -0.34546E-03   -0.29491E-03  2896   0.425E-01    0.262E-01
DAV:   8    -0.182401871497E+02   -0.10779E-03   -0.95316E-04  2792   0.174E-01    0.187E-01
DAV:   9    -0.182396541645E+02    0.53299E-03   -0.14816E-03  2520   0.446E-01    0.695E-02
DAV:  10    -0.182387820989E+02    0.87207E-03   -0.55725E-04  2568   0.919E-02    0.236E-02
DAV:  11    -0.182388926792E+02   -0.11058E-03   -0.74481E-05  2528   0.597E-02    0.150E-02
DAV:  12    -0.182388986524E+02   -0.59732E-05   -0.14518E-05  2304   0.183E-02    0.138E-02
DAV:  13    -0.182390370749E+02   -0.13842E-03   -0.20170E-05  2216   0.214E-02    0.106E-02
DAV:  14    -0.182390667810E+02   -0.29706E-04   -0.48730E-05  2352   0.317E-02    0.797E-03
DAV:  15    -0.182390307407E+02    0.36040E-04   -0.25007E-05  2208   0.198E-02    0.580E-03
DAV:  16    -0.182390027916E+02    0.27949E-04   -0.18290E-05  2104   0.171E-02    0.385E-03
DAV:  17    -0.182389505029E+02    0.52289E-04   -0.76221E-05  2296   0.297E-02    0.100E-03
DAV:  18    -0.182389635166E+02   -0.13014E-04   -0.25280E-04  2408   0.370E-02    0.179E-03
DAV:  19    -0.182389574580E+02    0.60586E-05   -0.43409E-04  2280   0.499E-02    0.215E-03
DAV:  20    -0.182390039243E+02   -0.46466E-04   -0.10302E-04  2160   0.296E-02    0.173E-03
DAV:  21    -0.182390385929E+02   -0.34669E-04   -0.19185E-05  2080   0.166E-02    0.137E-03
DAV:  22    -0.182390573802E+02   -0.18787E-04   -0.14103E-05  2176   0.125E-02    0.101E-03
DAV:  23    -0.182390754608E+02   -0.18081E-04   -0.43706E-05  2104   0.186E-02    0.719E-04
DAV:  24    -0.182390913186E+02   -0.15858E-04   -0.69763E-05  2144   0.222E-02    0.367E-04
DAV:  25    -0.182391047235E+02   -0.13405E-04   -0.45546E-05  2072   0.185E-02    0.187E-04
DAV:  26    -0.182391101342E+02   -0.54106E-05   -0.14113E-05  1976   0.109E-02    0.588E-05
DAV:  27    -0.182391178508E+02   -0.77167E-05   -0.19811E-05  1952   0.136E-02    0.913E-05
DAV:  28    -0.182391184751E+02   -0.62425E-06   -0.30268E-06  1968   0.731E-03    0.810E-05
DAV:  29    -0.182391217376E+02   -0.32625E-05   -0.28142E-06  1920   0.653E-03    0.758E-05
DAV:  30    -0.182391230548E+02   -0.13171E-05   -0.44367E-06  1920   0.797E-03    0.640E-05
DAV:  31    -0.182391249103E+02   -0.18555E-05   -0.46521E-06  1920   0.811E-03    0.489E-05
DAV:  32    -0.182391270671E+02   -0.21568E-05   -0.97771E-06  1920   0.111E-02    0.391E-05
DAV:  33    -0.182391286481E+02   -0.15810E-05   -0.47632E-06  1928   0.874E-03    0.369E-05
DAV:  34    -0.182391285958E+02    0.52334E-07   -0.36013E-06  1928   0.784E-03    0.341E-05
DAV:  35    -0.182391294332E+02   -0.83739E-06   -0.36285E-06  1920   0.737E-03    0.320E-05
DAV:  36    -0.182391308459E+02   -0.14127E-05   -0.52882E-06  1920   0.838E-03    0.316E-05
DAV:  37    -0.182391316071E+02   -0.76128E-06   -0.65123E-06  1920   0.914E-03    0.334E-05
DAV:  38    -0.182391320524E+02   -0.44525E-06   -0.34711E-06  1920   0.741E-03    0.315E-05
DAV:  39    -0.182391315348E+02    0.51758E-06   -0.32598E-06  1920   0.706E-03    0.322E-05
DAV:  40    -0.182391317053E+02   -0.17046E-06   -0.32937E-06  1920   0.711E-03    0.311E-05
DAV:  41    -0.182391310581E+02    0.64714E-06   -0.29794E-06  1920   0.673E-03    0.313E-05
DAV:  42    -0.182391314368E+02   -0.37866E-06   -0.12798E-06  1920   0.474E-03    0.302E-05
DAV:  43    -0.182391318207E+02   -0.38394E-06   -0.29264E-06  1920   0.594E-03    0.307E-05
DAV:  44    -0.182391312210E+02    0.59977E-06   -0.31545E-06  1920   0.650E-03    0.297E-05
DAV:  45    -0.182391318405E+02   -0.61958E-06   -0.28917E-06  1920   0.627E-03    0.309E-05
DAV:  46    -0.182391319415E+02   -0.10099E-06   -0.23271E-06  1920   0.621E-03    0.296E-05
DAV:  47    -0.182391317621E+02    0.17939E-06   -0.29980E-06  1920   0.650E-03    0.300E-05
DAV:  48    -0.182391313804E+02    0.38170E-06   -0.26355E-06  1920   0.612E-03    0.296E-05
DAV:  49    -0.182391317940E+02   -0.41357E-06   -0.19292E-06  1920   0.517E-03    0.297E-05
DAV:  50    -0.182391314388E+02    0.35524E-06   -0.14126E-06  1920   0.459E-03    0.295E-05
DAV:  51    -0.182391317117E+02   -0.27292E-06   -0.15683E-06  1920   0.511E-03    0.296E-05
DAV:  52    -0.182391313726E+02    0.33906E-06   -0.17018E-06  1920   0.491E-03    0.293E-05
DAV:  53    -0.182391318888E+02   -0.51614E-06   -0.21094E-06  1920   0.546E-03    0.297E-05
DAV:  54    -0.182391314933E+02    0.39545E-06   -0.20007E-06  1920   0.540E-03    0.293E-05
DAV:  55    -0.182391313297E+02    0.16358E-06   -0.95313E-07  1920   0.365E-03    0.294E-05
DAV:  56    -0.182391311752E+02    0.15456E-06   -0.79770E-07  1920   0.341E-03    0.293E-05
DAV:  57    -0.182391319600E+02   -0.78480E-06   -0.11619E-06  1936   0.398E-03    0.294E-05
DAV:  58    -0.182391313254E+02    0.63457E-06   -0.99135E-07  1928   0.356E-03    0.293E-05
DAV:  59    -0.182391310977E+02    0.22770E-06   -0.43423E-07  1896   0.255E-03    0.295E-05
DAV:  60    -0.182391313259E+02   -0.22823E-06   -0.95922E-07  1920   0.339E-03    0.292E-05
DAV:  61    -0.182391314513E+02   -0.12536E-06   -0.11632E-06  1920   0.406E-03    0.294E-05
DAV:  62    -0.182391312324E+02    0.21891E-06   -0.72867E-07  1896   0.322E-03    0.293E-05
DAV:  63    -0.182391316445E+02   -0.41206E-06   -0.82038E-07  1920   0.330E-03    0.293E-05
DAV:  64    -0.182391311447E+02    0.49971E-06   -0.31051E-07  1856   0.193E-03    0.293E-05
DAV:  65    -0.182391312206E+02   -0.75896E-07   -0.12633E-07  1784   0.142E-03
   3 F= -.18239131E+02 E0= -.18234597E+02  d E =-.103999E+01  mag=    -0.0000
       N       E                     dE             d eps       ncg     rms          rms(c)
DAV:   1    -0.185306533059E+02   -0.29152E+00   -0.31969E+01  2272   0.179E+01    0.347E+00
DAV:   2    -0.186721286027E+02   -0.14148E+00   -0.21090E+00  2464   0.897E+00    0.138E+00
DAV:   3    -0.186455016441E+02    0.26627E-01   -0.27778E-01  2848   0.569E+00    0.952E-01
DAV:   4    -0.186361399686E+02    0.93617E-02   -0.42576E-02  2656   0.239E+00    0.351E-01
DAV:   5    -0.186236796453E+02    0.12460E-01   -0.12543E-02  2904   0.800E-01    0.258E-01
DAV:   6    -0.186157830069E+02    0.78966E-02   -0.42286E-03  2488   0.742E-01    0.888E-02
DAV:   7    -0.186127534073E+02    0.30296E-02   -0.36285E-04  2648   0.195E-01    0.388E-02
DAV:   8    -0.186121037782E+02    0.64963E-03   -0.88388E-05  2384   0.574E-02    0.108E-02
DAV:   9    -0.186120237450E+02    0.80033E-04   -0.14638E-05  2592   0.231E-02    0.908E-03
DAV:  10    -0.186120759401E+02   -0.52195E-04   -0.51376E-06  2272   0.193E-02    0.320E-03
DAV:  11    -0.186121428053E+02   -0.66865E-04   -0.32880E-06  2248   0.744E-03    0.225E-03
DAV:  12    -0.186121730518E+02   -0.30246E-04   -0.89586E-07  1936   0.566E-03    0.115E-03
DAV:  13    -0.186122085547E+02   -0.35503E-04   -0.10143E-06  1952   0.362E-03    0.773E-04
DAV:  14    -0.186122400335E+02   -0.31479E-04   -0.26766E-06  2048   0.557E-03    0.630E-04
DAV:  15    -0.186122573848E+02   -0.17351E-04   -0.39494E-06  2208   0.663E-03    0.528E-04
DAV:  16    -0.186122925964E+02   -0.35212E-04   -0.74339E-06  2368   0.100E-02    0.396E-04
DAV:  17    -0.186123224122E+02   -0.29816E-04   -0.14155E-05  2144   0.116E-02    0.229E-04
DAV:  18    -0.186123216917E+02    0.72051E-06   -0.29231E-05  2080   0.169E-02    0.131E-04
DAV:  19    -0.186123230191E+02   -0.13274E-05   -0.43273E-05  2088   0.176E-02    0.102E-04
DAV:  20    -0.186123253433E+02   -0.23242E-05   -0.22346E-05  2000   0.134E-02    0.823E-05
DAV:  21    -0.186123248175E+02    0.52580E-06   -0.42564E-06  1928   0.760E-03    0.633E-05
DAV:  22    -0.186123209832E+02    0.38343E-05   -0.40835E-06  1928   0.783E-03    0.425E-05
DAV:  23    -0.186123187049E+02    0.22783E-05   -0.63086E-06  1936   0.856E-03    0.381E-05
DAV:  24    -0.186123158251E+02    0.28798E-05   -0.32760E-06  1928   0.682E-03    0.351E-05
DAV:  25    -0.186123151658E+02    0.65926E-06   -0.33911E-06  1920   0.749E-03    0.360E-05
DAV:  26    -0.186123140350E+02    0.11308E-05   -0.28393E-06  1920   0.688E-03    0.322E-05
DAV:  27    -0.186123146623E+02   -0.62723E-06   -0.38453E-06  1936   0.734E-03    0.321E-05
DAV:  28    -0.186123150261E+02   -0.36379E-06   -0.40294E-06  1936   0.779E-03    0.302E-05
DAV:  29    -0.186123154732E+02   -0.44714E-06   -0.34020E-06  1944   0.645E-03    0.308E-05
DAV:  30    -0.186123143428E+02    0.11304E-05   -0.55530E-06  1928   0.824E-03    0.299E-05
DAV:  31    -0.186123155596E+02   -0.12168E-05   -0.48278E-06  1928   0.793E-03    0.313E-05
DAV:  32    -0.186123148481E+02    0.71147E-06   -0.76722E-06  1936   0.988E-03    0.300E-05
DAV:  33    -0.186123145968E+02    0.25127E-06   -0.26031E-06  1920   0.651E-03    0.304E-05
DAV:  34    -0.186123146388E+02   -0.41999E-07   -0.26153E-06  1920   0.670E-03    0.293E-05
DAV:  35    -0.186123149612E+02   -0.32234E-06   -0.19550E-06  1920   0.586E-03    0.307E-05
DAV:  36    -0.186123146074E+02    0.35378E-06   -0.16151E-06  1920   0.523E-03    0.292E-05
DAV:  37    -0.186123154588E+02   -0.85143E-06   -0.23270E-06  1928   0.620E-03    0.310E-05
DAV:  38    -0.186123149378E+02    0.52102E-06   -0.35273E-06  1920   0.728E-03    0.293E-05
DAV:  39    -0.186123147008E+02    0.23700E-06   -0.26255E-06  1920   0.642E-03    0.304E-05
DAV:  40    -0.186123150132E+02   -0.31240E-06   -0.24925E-06  1920   0.619E-03    0.293E-05
DAV:  41    -0.186123158872E+02   -0.87401E-06   -0.35084E-06  1920   0.744E-03    0.312E-05
DAV:  42    -0.186123144517E+02    0.14355E-05   -0.33760E-06  1920   0.625E-03    0.291E-05
DAV:  43    -0.186123147809E+02   -0.32912E-06   -0.13527E-06  1920   0.449E-03    0.299E-05
DAV:  44    -0.186123155060E+02   -0.72519E-06   -0.15196E-06  1920   0.502E-03    0.295E-05
DAV:  45    -0.186123148485E+02    0.65759E-06   -0.24119E-06  1920   0.586E-03    0.299E-05
DAV:  46    -0.186123149946E+02   -0.14612E-06   -0.17091E-06  1920   0.530E-03    0.291E-05
DAV:  47    -0.186123149198E+02    0.74807E-07   -0.11544E-06  1920   0.447E-03    0.298E-05
DAV:  48    -0.186123148440E+02    0.75759E-07   -0.10391E-06  1920   0.417E-03    0.290E-05
DAV:  49    -0.186123151666E+02   -0.32260E-06   -0.13831E-06  1920   0.416E-03    0.299E-05
DAV:  50    -0.186123150555E+02    0.11109E-06   -0.82284E-07  1904   0.345E-03    0.291E-05
DAV:  51    -0.186123151735E+02   -0.11799E-06   -0.89718E-07  1896   0.349E-03    0.296E-05
DAV:  52    -0.186123149608E+02    0.21270E-06   -0.93386E-07  1920   0.361E-03    0.290E-05
DAV:  53    -0.186123148714E+02    0.89434E-07   -0.10281E-06  1904   0.379E-03    0.295E-05
DAV:  54    -0.186123152785E+02   -0.40709E-06   -0.14578E-06  1920   0.451E-03    0.291E-05
DAV:  55    -0.186123151179E+02    0.16051E-06   -0.11101E-06  1920   0.434E-03    0.295E-05
DAV:  56    -0.186123156423E+02   -0.52438E-06   -0.96599E-07  1920   0.404E-03    0.292E-05
DAV:  57    -0.186123151275E+02    0.51481E-06   -0.91529E-07  1920   0.362E-03    0.294E-05
DAV:  58    -0.186123147980E+02    0.32951E-06   -0.11516E-06  1920   0.350E-03    0.291E-05
DAV:  59    -0.186123149544E+02   -0.15639E-06   -0.79421E-07  1888   0.338E-03    0.294E-05
DAV:  60    -0.186123149556E+02   -0.11851E-08   -0.43556E-07  1872   0.244E-03
   4 F= -.18612315E+02 E0= -.18611295E+02  d E =-.373184E+00  mag=    -0.0000
       N       E                     dE             d eps       ncg     rms          rms(c)
DAV:   1    -0.186182870381E+02   -0.59721E-02   -0.66741E+00  2288   0.820E+00    0.142E+00
DAV:   2    -0.186506437545E+02   -0.32357E-01   -0.44143E-01  2480   0.359E+00    0.551E-01
DAV:   3    -0.186403489477E+02    0.10295E-01   -0.41137E-02  2736   0.232E+00    0.401E-01
DAV:   4    -0.186366211700E+02    0.37278E-02   -0.78913E-03  2536   0.992E-01    0.178E-01
DAV:   5    -0.186287748086E+02    0.78464E-02   -0.16573E-03  2824   0.236E-01    0.102E-01
DAV:   6    -0.186241713834E+02    0.46034E-02   -0.51501E-04  2416   0.252E-01    0.450E-02
DAV:   7    -0.186236780895E+02    0.49329E-03   -0.83676E-05  2272   0.109E-01    0.133E-02
DAV:   8    -0.186238548875E+02   -0.17680E-03   -0.18514E-05  2288   0.188E-02    0.770E-03
DAV:   9    -0.186238523659E+02    0.25216E-05   -0.65974E-06  2320   0.235E-02    0.315E-03
DAV:  10    -0.186238598340E+02   -0.74681E-05   -0.37072E-06  2256   0.126E-02    0.122E-03
DAV:  11    -0.186238739428E+02   -0.14109E-04   -0.53501E-06  2272   0.913E-03    0.746E-04
DAV:  12    -0.186238951244E+02   -0.21182E-04   -0.71346E-06  2248   0.104E-02    0.411E-04
DAV:  13    -0.186239139363E+02   -0.18812E-04   -0.70100E-06  2144   0.889E-03    0.252E-04
DAV:  14    -0.186239418178E+02   -0.27881E-04   -0.30403E-05  2096   0.155E-02    0.206E-04
DAV:  15    -0.186239540363E+02   -0.12218E-04   -0.43685E-05  2184   0.171E-02    0.202E-04
DAV:  16    -0.186239561190E+02   -0.20827E-05   -0.91519E-05  2184   0.243E-02    0.146E-04
DAV:  17    -0.186239756785E+02   -0.19560E-04   -0.50663E-05  2136   0.191E-02    0.762E-05
DAV:  18    -0.186239782221E+02   -0.25436E-05   -0.32792E-06  2096   0.715E-03    0.693E-05
DAV:  19    -0.186239747479E+02    0.34742E-05   -0.30349E-06  2000   0.678E-03    0.565E-05
DAV:  20    -0.186239711822E+02    0.35657E-05   -0.48625E-06  1920   0.757E-03    0.359E-05
DAV:  21    -0.186239697158E+02    0.14664E-05   -0.99790E-06  1944   0.103E-02    0.344E-05
DAV:  22    -0.186239691123E+02    0.60352E-06   -0.65867E-06  1944   0.927E-03    0.322E-05
DAV:  23    -0.186239673707E+02    0.17416E-05   -0.29672E-06  1920   0.728E-03    0.323E-05
DAV:  24    -0.186239665324E+02    0.83825E-06   -0.31878E-06  1928   0.700E-03    0.310E-05
DAV:  25    -0.186239660147E+02    0.51773E-06   -0.33166E-06  1928   0.673E-03    0.312E-05
DAV:  26    -0.186239660465E+02   -0.31763E-07   -0.40797E-06  1920   0.762E-03    0.301E-05
DAV:  27    -0.186239656113E+02    0.43511E-06   -0.27388E-06  1920   0.708E-03    0.304E-05
DAV:  28    -0.186239657933E+02   -0.18198E-06   -0.28274E-06  1920   0.712E-03    0.299E-05
DAV:  29    -0.186239655199E+02    0.27339E-06   -0.13804E-06  1920   0.490E-03    0.293E-05
DAV:  30    -0.186239661935E+02   -0.67361E-06   -0.23811E-06  1920   0.615E-03    0.299E-05
DAV:  31    -0.186239651699E+02    0.10236E-05   -0.26444E-06  1920   0.613E-03    0.293E-05
DAV:  32    -0.186239653328E+02   -0.16286E-06   -0.14292E-06  1920   0.538E-03    0.297E-05
DAV:  33    -0.186239653826E+02   -0.49843E-07   -0.17311E-06  1920   0.586E-03    0.291E-05
DAV:  34    -0.186239663998E+02   -0.10172E-05   -0.30693E-06  1920   0.586E-03    0.302E-05
DAV:  35    -0.186239659631E+02    0.43670E-06   -0.73005E-06  1920   0.943E-03    0.294E-05
DAV:  36    -0.186239655257E+02    0.43733E-06   -0.15673E-06  1928   0.488E-03    0.294E-05
DAV:  37    -0.186239659039E+02   -0.37818E-06   -0.18473E-06  1920   0.532E-03    0.292E-05
DAV:  38    -0.186239651499E+02    0.75406E-06   -0.19476E-06  1920   0.538E-03    0.296E-05
DAV:  39    -0.186239652819E+02   -0.13203E-06   -0.18373E-06  1920   0.538E-03    0.290E-05
DAV:  40    -0.186239646247E+02    0.65717E-06   -0.15856E-06  1920   0.489E-03    0.294E-05
DAV:  41    -0.186239657959E+02   -0.11712E-05   -0.19006E-06  1920   0.515E-03    0.294E-05
DAV:  42    -0.186239645987E+02    0.11972E-05   -0.35369E-06  1920   0.659E-03    0.294E-05
DAV:  43    -0.186239640215E+02    0.57720E-06   -0.11609E-06  1904   0.423E-03    0.289E-05
DAV:  44    -0.186239648817E+02   -0.86021E-06   -0.13184E-06  1920   0.440E-03    0.292E-05
DAV:  45    -0.186239648752E+02    0.65193E-08   -0.13651E-06  1920   0.478E-03    0.289E-05
DAV:  46    -0.186239652788E+02   -0.40363E-06   -0.23140E-06  1920   0.537E-03    0.295E-05
DAV:  47    -0.186239644802E+02    0.79861E-06   -0.20277E-06  1920   0.516E-03    0.288E-05
DAV:  48    -0.186239646445E+02   -0.16427E-06   -0.51135E-07  1880   0.293E-03    0.290E-05
DAV:  49    -0.186239651112E+02   -0.46675E-06   -0.11754E-06  1920   0.427E-03    0.290E-05
DAV:  50    -0.186239648920E+02    0.21920E-06   -0.15177E-06  1920   0.473E-03    0.292E-05
DAV:  51    -0.186239647737E+02    0.11829E-06   -0.12508E-06  1920   0.421E-03    0.289E-05
DAV:  52    -0.186239643353E+02    0.43840E-06   -0.14130E-06  1920   0.437E-03    0.290E-05
DAV:  53    -0.186239645067E+02   -0.17133E-06   -0.60240E-07  1880   0.293E-03    0.288E-05
DAV:  54    -0.186239647486E+02   -0.24199E-06   -0.93520E-07  1888   0.353E-03    0.289E-05
DAV:  55    -0.186239656408E+02   -0.89217E-06   -0.21078E-06  1920   0.470E-03    0.295E-05
DAV:  56    -0.186239646004E+02    0.10404E-05   -0.49196E-06  1904   0.691E-03    0.291E-05
DAV:  57    -0.186239645531E+02    0.47269E-07   -0.68795E-07  1912   0.315E-03
   5 F= -.18623965E+02 E0= -.18623242E+02  d E =-.384833E+00  mag=    -0.0000
       N       E                     dE             d eps       ncg     rms          rms(c)
DAV:   1    -0.186250774725E+02   -0.11129E-02   -0.30386E-01  2304   0.175E+00    0.283E-01
DAV:   2    -0.186250944252E+02   -0.16953E-04   -0.21222E-02  2368   0.740E-01    0.132E-01
DAV:   3    -0.186269214406E+02   -0.18270E-02   -0.16464E-03  2632   0.473E-01    0.927E-02
DAV:   4    -0.186277110769E+02   -0.78964E-03   -0.31607E-04  2256   0.185E-01    0.561E-02
DAV:   5    -0.186302615322E+02   -0.25505E-02   -0.96192E-05  2656   0.508E-02    0.205E-02
DAV:   6    -0.186311115612E+02   -0.85003E-03   -0.45891E-05  2264   0.485E-02    0.745E-03
DAV:   7    -0.186312178169E+02   -0.10626E-03   -0.20272E-05  2280   0.243E-02    0.341E-03
DAV:   8    -0.186310732613E+02    0.14456E-03   -0.59292E-05  2280   0.238E-02    0.133E-03
DAV:   9    -0.186310454362E+02    0.27825E-04   -0.87725E-05  2200   0.264E-02    0.847E-04
DAV:  10    -0.186310192972E+02    0.26139E-04   -0.60466E-05  2200   0.221E-02    0.341E-04
DAV:  11    -0.186310471284E+02   -0.27831E-04   -0.41034E-05  2176   0.177E-02    0.148E-04
DAV:  12    -0.186310420650E+02    0.50634E-05   -0.49733E-05  2136   0.220E-02    0.916E-05
DAV:  13    -0.186310405943E+02    0.14707E-05   -0.88595E-05  2232   0.253E-02    0.917E-05
DAV:  14    -0.186310467400E+02   -0.61457E-05   -0.11623E-04  2160   0.267E-02    0.663E-05
DAV:  15    -0.186310454638E+02    0.12762E-05   -0.11830E-05  2032   0.128E-02    0.481E-05
DAV:  16    -0.186310433761E+02    0.20877E-05   -0.13206E-05  2016   0.130E-02    0.588E-05
DAV:  17    -0.186310440619E+02   -0.68583E-06   -0.55000E-06  1976   0.951E-03    0.512E-05
DAV:  18    -0.186310430961E+02    0.96586E-06   -0.10174E-05  1944   0.105E-02    0.360E-05
DAV:  19    -0.186310411974E+02    0.18987E-05   -0.69906E-06  1952   0.926E-03    0.378E-05
DAV:  20    -0.186310393492E+02    0.18482E-05   -0.16595E-05  1944   0.125E-02    0.382E-05
DAV:  21    -0.186310396592E+02   -0.30997E-06   -0.46736E-06  1928   0.899E-03    0.330E-05
DAV:  22    -0.186310387350E+02    0.92420E-06   -0.60244E-06  1920   0.870E-03    0.298E-05
DAV:  23    -0.186310390340E+02   -0.29893E-06   -0.20429E-06  1920   0.602E-03    0.301E-05
DAV:  24    -0.186310385793E+02    0.45464E-06   -0.31110E-06  1920   0.740E-03    0.295E-05
DAV:  25    -0.186310397795E+02   -0.12002E-05   -0.49070E-06  1936   0.826E-03    0.304E-05
DAV:  26    -0.186310386855E+02    0.10940E-05   -0.60132E-06  1920   0.886E-03    0.293E-05
DAV:  27    -0.186310392892E+02   -0.60377E-06   -0.26381E-06  1920   0.660E-03    0.291E-05
DAV:  28    -0.186310384586E+02    0.83064E-06   -0.27904E-06  1920   0.691E-03    0.291E-05
DAV:  29    -0.186310384606E+02   -0.19954E-08   -0.15580E-06  1920   0.543E-03    0.292E-05
DAV:  30    -0.186310385910E+02   -0.13038E-06   -0.18603E-06  1920   0.545E-03    0.290E-05
DAV:  31    -0.186310396392E+02   -0.10482E-05   -0.28231E-06  1920   0.648E-03    0.297E-05
DAV:  32    -0.186310389806E+02    0.65857E-06   -0.56112E-06  1920   0.811E-03    0.290E-05
DAV:  33    -0.186310389887E+02   -0.80263E-08   -0.12078E-06  1920   0.449E-03    0.290E-05
DAV:  34    -0.186310387089E+02    0.27975E-06   -0.12555E-06  1920   0.518E-03    0.291E-05
DAV:  35    -0.186310401282E+02   -0.14193E-05   -0.23472E-06  1920   0.647E-03    0.290E-05
DAV:  36    -0.186310393505E+02    0.77766E-06   -0.29644E-06  1920   0.691E-03    0.291E-05
DAV:  37    -0.186310388230E+02    0.52747E-06   -0.14429E-06  1912   0.463E-03    0.293E-05
DAV:  38    -0.186310398679E+02   -0.10448E-05   -0.11366E-06  1920   0.405E-03    0.289E-05
DAV:  39    -0.186310395096E+02    0.35825E-06   -0.13262E-06  1920   0.486E-03    0.291E-05
DAV:  40    -0.186310389997E+02    0.50994E-06   -0.19696E-06  1920   0.521E-03    0.290E-05
DAV:  41    -0.186310393388E+02   -0.33909E-06   -0.75457E-07  1920   0.374E-03    0.290E-05
DAV:  42    -0.186310393958E+02   -0.57064E-07   -0.12823E-06  1920   0.395E-03    0.289E-05
DAV:  43    -0.186310393785E+02    0.17299E-07   -0.20025E-06  1920   0.535E-03    0.291E-05
DAV:  44    -0.186310387143E+02    0.66427E-06   -0.15693E-06  1920   0.475E-03    0.292E-05
DAV:  45    -0.186310390112E+02   -0.29695E-06   -0.74910E-07  1920   0.333E-03    0.291E-05
DAV:  46    -0.186310389959E+02    0.15267E-07   -0.11725E-06  1888   0.406E-03    0.290E-05
DAV:  47    -0.186310392715E+02   -0.27556E-06   -0.14495E-06  1920   0.446E-03    0.289E-05
DAV:  48    -0.186310394517E+02   -0.18018E-06   -0.89774E-07  1912   0.356E-03    0.290E-05
DAV:  49    -0.186310389542E+02    0.49748E-06   -0.65975E-07  1888   0.317E-03    0.291E-05
DAV:  50    -0.186310397113E+02   -0.75713E-06   -0.11933E-06  1912   0.382E-03    0.291E-05
DAV:  51    -0.186310391702E+02    0.54112E-06   -0.10677E-06  1888   0.342E-03    0.289E-05
DAV:  52    -0.186310392125E+02   -0.42300E-07   -0.87483E-07  1920   0.343E-03
   6 F= -.18631039E+02 E0= -.18630259E+02  d E =-.391908E+00  mag=     0.0000
       N       E                     dE             d eps       ncg     rms          rms(c)
DAV:   1    -0.191073774092E+02   -0.47634E+00   -0.14884E+01  2288   0.285E+01    0.620E+00
DAV:   2    -0.189946694126E+02    0.11271E+00   -0.42555E+00  2400   0.292E+01    0.499E+00
DAV:   3    -0.188346165244E+02    0.16005E+00   -0.22987E+00  2840   0.127E+01    0.188E+00
DAV:   4    -0.187999491265E+02    0.34667E-01   -0.15623E-01  2856   0.490E+00    0.830E-01
DAV:   5    -0.187821960477E+02    0.17753E-01   -0.78901E-02  3168   0.265E+00    0.711E-01
DAV:   6    -0.187690052254E+02    0.13191E-01   -0.33710E-02  2640   0.187E+00    0.140E-01
DAV:   7    -0.187693357750E+02   -0.33055E-03   -0.24080E-03  2816   0.210E-01    0.972E-02
DAV:   8    -0.187684881852E+02    0.84759E-03   -0.24941E-04  2712   0.827E-02    0.350E-02
DAV:   9    -0.187670324539E+02    0.14557E-02   -0.65205E-05  2280   0.505E-02    0.254E-02
DAV:  10    -0.187668976148E+02    0.13484E-03   -0.26243E-05  2264   0.396E-02    0.145E-02
DAV:  11    -0.187667887602E+02    0.10885E-03   -0.28251E-05  2352   0.329E-02    0.479E-03
DAV:  12    -0.187667052451E+02    0.83515E-04   -0.22975E-05  2304   0.222E-02    0.231E-03
DAV:  13    -0.187667452036E+02   -0.39958E-04   -0.27390E-05  2216   0.216E-02    0.167E-03
DAV:  14    -0.187667606456E+02   -0.15442E-04   -0.67131E-05  2240   0.279E-02    0.791E-04
DAV:  15    -0.187668277073E+02   -0.67062E-04   -0.21324E-04  2400   0.354E-02    0.899E-04
DAV:  16    -0.187668179136E+02    0.97937E-05   -0.37533E-04  2336   0.483E-02    0.475E-04
DAV:  17    -0.187668732824E+02   -0.55369E-04   -0.68486E-05  2224   0.257E-02    0.705E-04
DAV:  18    -0.187669093239E+02   -0.36042E-04   -0.19085E-05  2112   0.167E-02    0.498E-04
DAV:  19    -0.187669476861E+02   -0.38362E-04   -0.34481E-05  2128   0.194E-02    0.165E-04
DAV:  20    -0.187669667398E+02   -0.19054E-04   -0.59479E-05  2200   0.211E-02    0.813E-05
DAV:  21    -0.187669859562E+02   -0.19216E-04   -0.77935E-05  2184   0.228E-02    0.103E-04
DAV:  22    -0.187669924917E+02   -0.65355E-05   -0.15765E-05  1976   0.121E-02    0.955E-05
DAV:  23    -0.187669970557E+02   -0.45640E-05   -0.49208E-06  1960   0.792E-03    0.991E-05
DAV:  24    -0.187670071533E+02   -0.10098E-04   -0.48806E-06  1976   0.891E-03    0.567E-05
DAV:  25    -0.187670130738E+02   -0.59205E-05   -0.47137E-06  1944   0.922E-03    0.353E-05
DAV:  26    -0.187670172226E+02   -0.41488E-05   -0.28683E-06  1928   0.735E-03    0.381E-05
DAV:  27    -0.187670190922E+02   -0.18696E-05   -0.31919E-06  1920   0.706E-03    0.377E-05
DAV:  28    -0.187670217065E+02   -0.26143E-05   -0.27031E-06  1920   0.667E-03    0.331E-05
DAV:  29    -0.187670250282E+02   -0.33217E-05   -0.33925E-06  1920   0.723E-03    0.327E-05
DAV:  30    -0.187670253200E+02   -0.29182E-06   -0.38394E-06  1920   0.822E-03    0.306E-05
DAV:  31    -0.187670259140E+02   -0.59402E-06   -0.25940E-06  1944   0.701E-03    0.306E-05
DAV:  32    -0.187670259060E+02    0.80581E-08   -0.42031E-06  1944   0.780E-03    0.302E-05
DAV:  33    -0.187670256584E+02    0.24756E-06   -0.21756E-06  1920   0.620E-03    0.307E-05
DAV:  34    -0.187670254091E+02    0.24926E-06   -0.28026E-06  1920   0.696E-03    0.304E-05
DAV:  35    -0.187670260662E+02   -0.65707E-06   -0.29962E-06  1920   0.661E-03    0.312E-05
DAV:  36    -0.187670261592E+02   -0.93025E-07   -0.25608E-06  1920   0.637E-03    0.298E-05
DAV:  37    -0.187670263187E+02   -0.15946E-06   -0.19895E-06  1928   0.574E-03    0.297E-05
DAV:  38    -0.187670261452E+02    0.17349E-06   -0.17952E-06  1920   0.536E-03    0.293E-05
DAV:  39    -0.187670257814E+02    0.36377E-06   -0.13230E-06  1920   0.519E-03    0.295E-05
DAV:  40    -0.187670257438E+02    0.37680E-07   -0.20566E-06  1920   0.528E-03    0.292E-05
DAV:  41    -0.187670267144E+02   -0.97067E-06   -0.30712E-06  1920   0.634E-03    0.301E-05
DAV:  42    -0.187670258457E+02    0.86877E-06   -0.21737E-06  1920   0.568E-03    0.291E-05
DAV:  43    -0.187670253956E+02    0.45001E-06   -0.15473E-06  1920   0.472E-03    0.296E-05
DAV:  44    -0.187670255639E+02   -0.16830E-06   -0.14108E-06  1920   0.431E-03    0.290E-05
DAV:  45    -0.187670257214E+02   -0.15743E-06   -0.62170E-07  1928   0.311E-03    0.292E-05
DAV:  46    -0.187670256220E+02    0.99422E-07   -0.38245E-07  1872   0.226E-03
   7 F= -.18767026E+02 E0= -.18766166E+02  d E =-.135986E+00  mag=     0.0000
       N       E                     dE             d eps       ncg     rms          rms(c)
DAV:   1    -0.199757283227E+02   -0.12087E+01   -0.54017E+01  2448   0.540E+01    0.118E+01
DAV:   2    -0.195240659450E+02    0.45166E+00   -0.12983E+01  2416   0.453E+01    0.115E+01
DAV:   3    -0.193575487905E+02    0.16652E+00   -0.19993E+01  2608   0.259E+01    0.598E+00
DAV:   4    -0.190485753494E+02    0.30897E+00   -0.86134E-01  2912   0.116E+01    0.325E+00
DAV:   5    -0.189303961525E+02    0.11818E+00   -0.27642E-01  3160   0.593E+00    0.209E+00
DAV:   6    -0.188714740368E+02    0.58922E-01   -0.48943E-01  2936   0.908E+00    0.121E+00
DAV:   7    -0.188562228066E+02    0.15251E-01   -0.16899E-01  2528   0.253E+00    0.923E-01
DAV:   8    -0.188508542418E+02    0.53686E-02   -0.10917E-02  3008   0.752E-01    0.650E-01
DAV:   9    -0.188474257201E+02    0.34285E-02   -0.99860E-03  2944   0.814E-01    0.312E-01
DAV:  10    -0.188454599872E+02    0.19657E-02   -0.42166E-03  2936   0.380E-01    0.118E-01
DAV:  11    -0.188442838294E+02    0.11762E-02   -0.26487E-03  2600   0.575E-01    0.128E-01
DAV:  12    -0.188438429394E+02    0.44089E-03   -0.54317E-04  2240   0.148E-01    0.876E-02
DAV:  13    -0.188435893326E+02    0.25361E-03   -0.86309E-05  2560   0.795E-02    0.534E-02
DAV:  14    -0.188435587252E+02    0.30607E-04   -0.57275E-05  2512   0.448E-02    0.332E-02
DAV:  15    -0.188432887461E+02    0.26998E-03   -0.39958E-05  2400   0.540E-02    0.718E-03
DAV:  16    -0.188432203036E+02    0.68442E-04   -0.34675E-05  2376   0.281E-02    0.589E-03
DAV:  17    -0.188433044722E+02   -0.84169E-04   -0.49088E-05  2312   0.268E-02    0.241E-03
DAV:  18    -0.188433437436E+02   -0.39271E-04   -0.86762E-05  2224   0.321E-02    0.298E-03
DAV:  19    -0.188433573529E+02   -0.13609E-04   -0.14378E-04  2288   0.312E-02    0.115E-03
DAV:  20    -0.188433457890E+02    0.11564E-04   -0.22542E-04  2248   0.415E-02    0.104E-03
DAV:  21    -0.188434648376E+02   -0.11905E-03   -0.26117E-04  2392   0.352E-02    0.701E-04
DAV:  22    -0.188434572498E+02    0.75878E-05   -0.61926E-04  2320   0.592E-02    0.608E-04
DAV:  23    -0.188435005546E+02   -0.43305E-04   -0.85586E-05  2328   0.275E-02    0.391E-04
DAV:  24    -0.188435200247E+02   -0.19470E-04   -0.16631E-05  2096   0.149E-02    0.336E-04
DAV:  25    -0.188435429050E+02   -0.22880E-04   -0.14080E-05  2080   0.147E-02    0.309E-04
DAV:  26    -0.188435733406E+02   -0.30436E-04   -0.13008E-05  2080   0.133E-02    0.172E-04
DAV:  27    -0.188435915563E+02   -0.18216E-04   -0.29208E-05  2104   0.155E-02    0.789E-05
DAV:  28    -0.188435979493E+02   -0.63930E-05   -0.43444E-05  2088   0.185E-02    0.719E-05
DAV:  29    -0.188436003142E+02   -0.23650E-05   -0.48351E-05  2016   0.193E-02    0.587E-05
DAV:  30    -0.188436058584E+02   -0.55441E-05   -0.17240E-05  2072   0.115E-02    0.771E-05
DAV:  31    -0.188436196764E+02   -0.13818E-04   -0.41755E-05  2048   0.183E-02    0.745E-05
DAV:  32    -0.188436205332E+02   -0.85682E-06   -0.39335E-06  1968   0.786E-03    0.635E-05
DAV:  33    -0.188436224616E+02   -0.19284E-05   -0.49214E-06  1936   0.769E-03    0.560E-05
DAV:  34    -0.188436240728E+02   -0.16112E-05   -0.48879E-06  1936   0.827E-03    0.491E-05
DAV:  35    -0.188436273219E+02   -0.32490E-05   -0.38855E-06  1920   0.780E-03    0.361E-05
DAV:  36    -0.188436263173E+02    0.10046E-05   -0.63999E-06  1920   0.909E-03    0.329E-05
DAV:  37    -0.188436270300E+02   -0.71268E-06   -0.37231E-06  1928   0.729E-03    0.333E-05
DAV:  38    -0.188436281352E+02   -0.11051E-05   -0.30624E-06  1920   0.668E-03    0.348E-05
DAV:  39    -0.188436286405E+02   -0.50538E-06   -0.18381E-06  1920   0.566E-03    0.320E-05
DAV:  40    -0.188436301391E+02   -0.14985E-05   -0.35117E-06  1936   0.754E-03    0.337E-05
DAV:  41    -0.188436296462E+02    0.49285E-06   -0.44889E-06  1920   0.860E-03    0.311E-05
DAV:  42    -0.188436291909E+02    0.45527E-06   -0.30964E-06  1920   0.708E-03    0.313E-05
DAV:  43    -0.188436306502E+02   -0.14593E-05   -0.41320E-06  1928   0.790E-03    0.310E-05
DAV:  44    -0.188436309946E+02   -0.34438E-06   -0.40945E-06  1928   0.858E-03    0.310E-05
DAV:  45    -0.188436300477E+02    0.94685E-06   -0.22365E-06  1920   0.541E-03    0.298E-05
DAV:  46    -0.188436301793E+02   -0.13154E-06   -0.26956E-06  1920   0.672E-03    0.304E-05
DAV:  47    -0.188436295264E+02    0.65286E-06   -0.26225E-06  1920   0.624E-03    0.299E-05
DAV:  48    -0.188436305946E+02   -0.10682E-05   -0.29739E-06  1920   0.671E-03    0.307E-05
DAV:  49    -0.188436302412E+02    0.35341E-06   -0.30512E-06  1920   0.689E-03    0.296E-05
DAV:  50    -0.188436304111E+02   -0.16991E-06   -0.18023E-06  1920   0.572E-03    0.302E-05
DAV:  51    -0.188436302558E+02    0.15527E-06   -0.18824E-06  1920   0.570E-03    0.295E-05
DAV:  52    -0.188436304336E+02   -0.17777E-06   -0.21103E-06  1920   0.559E-03    0.299E-05
DAV:  53    -0.188436301494E+02    0.28415E-06   -0.24466E-06  1920   0.565E-03    0.296E-05
DAV:  54    -0.188436301923E+02   -0.42877E-07   -0.18125E-06  1920   0.510E-03    0.298E-05
DAV:  55    -0.188436294414E+02    0.75094E-06   -0.21999E-06  1920   0.517E-03    0.294E-05
DAV:  56    -0.188436296348E+02   -0.19339E-06   -0.67724E-07  1928   0.360E-03    0.297E-05
DAV:  57    -0.188436295926E+02    0.42161E-07   -0.58174E-07  1888   0.325E-03
   8 F= -.18843630E+02 E0= -.18842354E+02  d E =-.212590E+00  mag=    -0.0000
       N       E                     dE             d eps       ncg     rms          rms(c)
DAV:   1    -0.189416151240E+02   -0.97985E-01   -0.36937E+00  2272   0.133E+01    0.341E+00
DAV:   2    -0.189314772187E+02    0.10138E-01   -0.24199E+00  2368   0.142E+01    0.334E+00
DAV:   3    -0.188343193972E+02    0.97158E-01   -0.38914E-01  2720   0.965E+00    0.657E-01
DAV:   4    -0.188441589484E+02   -0.98396E-02   -0.16644E-01  3080   0.331E+00    0.816E-01
DAV:   5    -0.188405073677E+02    0.36516E-02   -0.43358E-02  2544   0.200E+00    0.183E-01
DAV:   6    -0.188468481021E+02   -0.63407E-02   -0.23648E-03  2640   0.279E-01    0.899E-02
DAV:   7    -0.188504002372E+02   -0.35521E-02   -0.25847E-04  3288   0.117E-01    0.283E-02
DAV:   8    -0.188508784246E+02   -0.47819E-03   -0.32260E-05  2688   0.334E-02    0.151E-02
DAV:   9    -0.188508475045E+02    0.30920E-04   -0.61251E-06  2392   0.191E-02    0.606E-03
DAV:  10    -0.188509102319E+02   -0.62727E-04   -0.28042E-06  2080   0.913E-03    0.263E-03
DAV:  11    -0.188509386259E+02   -0.28394E-04   -0.91985E-07  1936   0.483E-03    0.151E-03
DAV:  12    -0.188509649911E+02   -0.26365E-04   -0.10816E-06  1952   0.498E-03    0.455E-04
DAV:  13    -0.188510023880E+02   -0.37397E-04   -0.20306E-06  2304   0.548E-03    0.634E-04
DAV:  14    -0.188510300168E+02   -0.27629E-04   -0.39048E-06  2360   0.718E-03    0.416E-04
DAV:  15    -0.188510519984E+02   -0.21982E-04   -0.73702E-06  2096   0.934E-03    0.176E-04
DAV:  16    -0.188510499682E+02    0.20302E-05   -0.56623E-06  2064   0.942E-03    0.987E-05
DAV:  17    -0.188510431980E+02    0.67703E-05   -0.79283E-06  2088   0.104E-02    0.563E-05
DAV:  18    -0.188510404743E+02    0.27237E-05   -0.10934E-05  2048   0.113E-02    0.484E-05
DAV:  19    -0.188510395367E+02    0.93752E-06   -0.14672E-05  2024   0.128E-02    0.454E-05
DAV:  20    -0.188510339815E+02    0.55552E-05   -0.22472E-05  1984   0.146E-02    0.487E-05
DAV:  21    -0.188510306315E+02    0.33501E-05   -0.37556E-06  1992   0.782E-03    0.330E-05
DAV:  22    -0.188510280506E+02    0.25809E-05   -0.66833E-06  1960   0.962E-03    0.343E-05
DAV:  23    -0.188510271337E+02    0.91689E-06   -0.22278E-06  1920   0.660E-03    0.322E-05
DAV:  24    -0.188510255258E+02    0.16079E-05   -0.20259E-06  1920   0.670E-03    0.321E-05
DAV:  25    -0.188510233759E+02    0.21499E-05   -0.23702E-06  1920   0.647E-03    0.318E-05
DAV:  26    -0.188510214012E+02    0.19747E-05   -0.35829E-06  1920   0.743E-03    0.339E-05
DAV:  27    -0.188510204815E+02    0.91969E-06   -0.39359E-06  1920   0.776E-03    0.307E-05
DAV:  28    -0.188510211945E+02   -0.71294E-06   -0.48156E-06  1928   0.744E-03    0.315E-05
DAV:  29    -0.188510215306E+02   -0.33615E-06   -0.59113E-06  1920   0.892E-03    0.300E-05
DAV:  30    -0.188510203898E+02    0.11408E-05   -0.51023E-06  1920   0.830E-03    0.305E-05
DAV:  31    -0.188510213046E+02   -0.91480E-06   -0.28459E-06  1920   0.652E-03    0.303E-05
DAV:  32    -0.188510204208E+02    0.88382E-06   -0.11201E-06  1920   0.401E-03    0.298E-05
DAV:  33    -0.188510207897E+02   -0.36890E-06   -0.22793E-06  1920   0.632E-03    0.296E-05
DAV:  34    -0.188510200859E+02    0.70385E-06   -0.28295E-06  1920   0.666E-03    0.302E-05
DAV:  35    -0.188510198564E+02    0.22948E-06   -0.34891E-07  1888   0.235E-03    0.295E-05
DAV:  36    -0.188510204478E+02   -0.59140E-06   -0.13147E-06  1920   0.427E-03    0.296E-05
DAV:  37    -0.188510200242E+02    0.42359E-06   -0.12789E-06  1920   0.479E-03    0.294E-05
DAV:  38    -0.188510196876E+02    0.33664E-06   -0.16615E-06  1920   0.529E-03    0.298E-05
DAV:  39    -0.188510193450E+02    0.34257E-06   -0.22485E-06  1920   0.545E-03    0.298E-05
DAV:  40    -0.188510201223E+02   -0.77735E-06   -0.20111E-06  1920   0.575E-03    0.298E-05
DAV:  41    -0.188510196721E+02    0.45021E-06   -0.20632E-06  1920   0.632E-03    0.294E-05
DAV:  42    -0.188510194551E+02    0.21699E-06   -0.14720E-06  1920   0.499E-03    0.298E-05
DAV:  43    -0.188510194495E+02    0.55998E-08   -0.15624E-06  1920   0.544E-03    0.295E-05
DAV:  44    -0.188510195934E+02   -0.14387E-06   -0.10464E-06  1920   0.426E-03    0.297E-05
DAV:  45    -0.188510200136E+02   -0.42021E-06   -0.12020E-06  1920   0.470E-03    0.295E-05
DAV:  46    -0.188510198136E+02    0.20005E-06   -0.16601E-06  1920   0.506E-03    0.296E-05
DAV:  47    -0.188510197796E+02    0.33952E-07   -0.19297E-06  1920   0.564E-03    0.295E-05
DAV:  48    -0.188510193501E+02    0.42950E-06   -0.12466E-06  1920   0.469E-03    0.296E-05
DAV:  49    -0.188510196059E+02   -0.25581E-06   -0.11787E-06  1920   0.467E-03    0.293E-05
DAV:  50    -0.188510196407E+02   -0.34802E-07   -0.79360E-07  1904   0.380E-03
   9 F= -.18851020E+02 E0= -.18849893E+02  d E =-.219980E+00  mag=    -0.0000
       N       E                     dE             d eps       ncg     rms          rms(c)
DAV:   1    -0.188531747405E+02   -0.21551E-02   -0.80188E-02  2240   0.199E+00    0.466E-01
DAV:   2    -0.188573593532E+02   -0.41846E-02   -0.35295E-02  2448   0.210E+00    0.393E-01
DAV:   3    -0.188536739117E+02    0.36854E-02   -0.90343E-03  2648   0.109E+00    0.759E-02
DAV:   4    -0.188530707581E+02    0.60315E-03   -0.66709E-04  2536   0.136E-01    0.477E-02
DAV:   5    -0.188523475174E+02    0.72324E-03   -0.27045E-04  2648   0.174E-01    0.328E-02
DAV:   6    -0.188515283753E+02    0.81914E-03   -0.99054E-05  2416   0.107E-01    0.126E-02
DAV:   7    -0.188513701888E+02    0.15819E-03   -0.22266E-05  2368   0.316E-02    0.304E-03
DAV:   8    -0.188513030419E+02    0.67147E-04   -0.92791E-05  2312   0.257E-02    0.160E-03
DAV:   9    -0.188512705917E+02    0.32450E-04   -0.19867E-04  2224   0.347E-02    0.760E-04
DAV:  10    -0.188512485348E+02    0.22057E-04   -0.13154E-04  2224   0.299E-02    0.463E-04
DAV:  11    -0.188594025283E+02   -0.81540E-02   -0.22848E-04  2440   0.290E-02    0.419E-01
DAV:  12    -0.188500983979E+02    0.93041E-02   -0.98871E+00  2248   0.388E-01    0.221E-02
DAV:  13    -0.188510714477E+02   -0.97305E-03   -0.32712E-04  2584   0.753E-02    0.419E-03
DAV:  14    -0.188512159414E+02   -0.14449E-03   -0.25215E-05  2488   0.198E-02    0.922E-04
DAV:  15    -0.188512743732E+02   -0.58432E-04   -0.14024E-05  2272   0.133E-02    0.519E-04
DAV:  16    -0.188512806699E+02   -0.62967E-05   -0.88750E-06  2152   0.815E-03    0.380E-04
DAV:  17    -0.188512498053E+02    0.30865E-04   -0.90178E-06  2032   0.111E-02    0.334E-04
DAV:  18    -0.188512020014E+02    0.47804E-04   -0.33331E-05  2088   0.162E-02    0.157E-04
DAV:  19    -0.188511861360E+02    0.15865E-04   -0.12251E-05  2224   0.100E-02    0.131E-04
DAV:  20    -0.188511817553E+02    0.43806E-05   -0.64076E-06  1952   0.971E-03    0.979E-05
DAV:  21    -0.188511762783E+02    0.54771E-05   -0.23238E-06  1920   0.725E-03    0.797E-05
DAV:  22    -0.188511737046E+02    0.25736E-05   -0.26440E-06  1952   0.751E-03    0.756E-05
DAV:  23    -0.188511666079E+02    0.70967E-05   -0.32008E-06  1936   0.753E-03    0.818E-05
DAV:  24    -0.188511628923E+02    0.37156E-05   -0.47019E-06  1928   0.872E-03    0.853E-05
DAV:  25    -0.188511617453E+02    0.11470E-05   -0.46832E-06  1952   0.956E-03    0.820E-05
DAV:  26    -0.188511615528E+02    0.19257E-06   -0.29784E-06  1936   0.729E-03    0.866E-05
DAV:  27    -0.188511592524E+02    0.23003E-05   -0.32833E-06  1936   0.774E-03    0.847E-05
DAV:  28    -0.188511594277E+02   -0.17529E-06   -0.21701E-06  1936   0.652E-03    0.853E-05
DAV:  29    -0.188511594551E+02   -0.27380E-07   -0.25983E-06  1944   0.714E-03    0.882E-05
DAV:  30    -0.188511584388E+02    0.10163E-05   -0.25283E-06  1936   0.714E-03    0.859E-05
DAV:  31    -0.188511584614E+02   -0.22586E-07   -0.29736E-06  1920   0.711E-03    0.864E-05
DAV:  32    -0.188511564767E+02    0.19847E-05   -0.30171E-06  1920   0.629E-03    0.840E-05
DAV:  33    -0.188511565788E+02   -0.10209E-06   -0.14803E-06  1920   0.464E-03    0.838E-05
DAV:  34    -0.188511562972E+02    0.28160E-06   -0.11800E-06  1952   0.454E-03    0.840E-05
DAV:  35    -0.188511572041E+02   -0.90692E-06   -0.15103E-06  1936   0.504E-03    0.839E-05
DAV:  36    -0.188511574410E+02   -0.23692E-06   -0.17405E-06  1928   0.566E-03    0.834E-05
DAV:  37    -0.188511580973E+02   -0.65626E-06   -0.14114E-06  1936   0.541E-03    0.838E-05
DAV:  38    -0.188511573781E+02    0.71918E-06   -0.12921E-06  1920   0.513E-03    0.830E-05
DAV:  39    -0.188511578326E+02   -0.45446E-06   -0.19743E-06  1920   0.566E-03    0.830E-05
DAV:  40    -0.188511576258E+02    0.20673E-06   -0.17699E-06  1920   0.548E-03    0.828E-05
DAV:  41    -0.188511574040E+02    0.22181E-06   -0.13691E-06  1920   0.476E-03    0.831E-05
DAV:  42    -0.188511574168E+02   -0.12724E-07   -0.10925E-06  1920   0.436E-03    0.832E-05
DAV:  43    -0.188511577269E+02   -0.31018E-06   -0.13804E-06  1936   0.476E-03    0.836E-05
DAV:  44    -0.188511569854E+02    0.74158E-06   -0.12624E-06  1944   0.448E-03    0.819E-05
DAV:  45    -0.188511576259E+02   -0.64050E-06   -0.48616E-07  1904   0.292E-03    0.830E-05
DAV:  46    -0.188511579150E+02   -0.28915E-06   -0.89702E-07  1920   0.359E-03    0.834E-05
DAV:  47    -0.188511580351E+02   -0.12011E-06   -0.84752E-07  1920   0.418E-03    0.839E-05
DAV:  48    -0.188511581686E+02   -0.13344E-06   -0.11622E-06  1920   0.452E-03    0.837E-05
DAV:  49    -0.188511576283E+02    0.54026E-06   -0.11745E-06  1920   0.443E-03    0.830E-05
DAV:  50    -0.188511574435E+02    0.18480E-06   -0.49680E-07  1824   0.251E-03    0.831E-05
DAV:  51    -0.188511572726E+02    0.17090E-06   -0.43718E-07  1776   0.226E-03    0.825E-05
DAV:  52    -0.188511581717E+02   -0.89906E-06   -0.14619E-06  1904   0.512E-03    0.837E-05
DAV:  53    -0.188511580384E+02    0.13325E-06   -0.13919E-06  1896   0.494E-03    0.834E-05
DAV:  54    -0.188511577218E+02    0.31665E-06   -0.22643E-07  1840   0.193E-03    0.830E-05
DAV:  55    -0.188511575615E+02    0.16031E-06   -0.19020E-07  1776   0.176E-03    0.829E-05
DAV:  56    -0.188511575944E+02   -0.32960E-07   -0.15384E-07  1688   0.146E-03
  10 F= -.18851158E+02 E0= -.18850011E+02  d E =-.220118E+00  mag=     0.0000
       N       E                     dE             d eps       ncg     rms          rms(c)
DAV:   1    -0.190771686807E+02   -0.22601E+00   -0.53686E+00  2424   0.183E+01    0.508E+00
DAV:   2    -0.191186635103E+02   -0.41495E-01   -0.58029E+00  2416   0.211E+01    0.545E+00
DAV:   3    -0.188579194213E+02    0.26074E+00   -0.82392E-01  2656   0.145E+01    0.132E+00
DAV:   4    -0.188596855247E+02   -0.17661E-02   -0.47645E-01  2960   0.662E+00    0.123E+00
DAV:   5    -0.188492880585E+02    0.10397E-01   -0.11479E-01  2696   0.289E+00    0.271E-01
DAV:   6    -0.188529972547E+02   -0.37092E-02   -0.47616E-03  2536   0.309E-01    0.155E-01
DAV:   7    -0.188575079116E+02   -0.45107E-02   -0.40001E-04  3096   0.140E-01    0.537E-02
DAV:   8    -0.188583183833E+02   -0.81047E-03   -0.13548E-04  2600   0.104E-01    0.227E-02
DAV:   9    -0.188583601108E+02   -0.41727E-04   -0.27609E-05  2640   0.258E-02    0.162E-02
DAV:  10    -0.188583253021E+02    0.34809E-04   -0.87795E-06  2552   0.206E-02    0.868E-03
DAV:  11    -0.188583599536E+02   -0.34652E-04   -0.42475E-06  2120   0.145E-02    0.315E-03
DAV:  12    -0.188584114663E+02   -0.51513E-04   -0.18260E-06  2056   0.684E-03    0.116E-03
DAV:  13    -0.188584676634E+02   -0.56197E-04   -0.14481E-06  1992   0.500E-03    0.863E-04
DAV:  14    -0.188585148857E+02   -0.47222E-04   -0.17551E-06  2080   0.576E-03    0.700E-04
DAV:  15    -0.188585750220E+02   -0.60136E-04   -0.52698E-06  2400   0.734E-03    0.451E-04
DAV:  16    -0.188585939718E+02   -0.18950E-04   -0.63366E-06  2160   0.822E-03    0.250E-04
DAV:  17    -0.188586024464E+02   -0.84746E-05   -0.18957E-05  2184   0.121E-02    0.133E-04
DAV:  18    -0.188585984853E+02    0.39611E-05   -0.72028E-05  2200   0.224E-02    0.995E-05
DAV:  19    -0.188586015428E+02   -0.30575E-05   -0.10679E-04  2120   0.239E-02    0.639E-05
DAV:  20    -0.188586004974E+02    0.10454E-05   -0.73886E-06  2000   0.926E-03    0.520E-05
DAV:  21    -0.188585987532E+02    0.17442E-05   -0.71972E-06  2048   0.946E-03    0.448E-05
DAV:  22    -0.188585924443E+02    0.63089E-05   -0.72951E-06  1952   0.933E-03    0.435E-05
DAV:  23    -0.188585874494E+02    0.49949E-05   -0.35372E-06  1944   0.797E-03    0.348E-05
DAV:  24    -0.188585831872E+02    0.42621E-05   -0.32388E-06  1960   0.813E-03    0.361E-05
DAV:  25    -0.188585830703E+02    0.11687E-06   -0.31987E-06  1944   0.780E-03    0.313E-05
DAV:  26    -0.188585833041E+02   -0.23374E-06   -0.30555E-06  1920   0.713E-03    0.329E-05
DAV:  27    -0.188585824534E+02    0.85066E-06   -0.33757E-06  1920   0.722E-03    0.303E-05
DAV:  28    -0.188585823406E+02    0.11282E-06   -0.32333E-06  1920   0.715E-03    0.313E-05
DAV:  29    -0.188585833323E+02   -0.99167E-06   -0.27510E-06  1920   0.680E-03    0.301E-05
DAV:  30    -0.188585821438E+02    0.11885E-05   -0.28191E-06  1920   0.668E-03    0.305E-05
DAV:  31    -0.188585832729E+02   -0.11291E-05   -0.37728E-06  1920   0.730E-03    0.300E-05
DAV:  32    -0.188585826865E+02    0.58640E-06   -0.19472E-06  1936   0.596E-03    0.299E-05
DAV:  33    -0.188585821348E+02    0.55166E-06   -0.20242E-06  1920   0.602E-03    0.297E-05
DAV:  34    -0.188585823627E+02   -0.22789E-06   -0.28134E-06  1928   0.656E-03    0.298E-05
DAV:  35    -0.188585817889E+02    0.57382E-06   -0.20023E-06  1928   0.605E-03    0.295E-05
DAV:  36    -0.188585813195E+02    0.46936E-06   -0.12457E-06  1920   0.470E-03    0.297E-05
DAV:  37    -0.188585817360E+02   -0.41644E-06   -0.25801E-06  1928   0.559E-03    0.297E-05
DAV:  38    -0.188585818730E+02   -0.13707E-06   -0.35614E-06  1920   0.695E-03    0.298E-05
DAV:  39    -0.188585813071E+02    0.56593E-06   -0.11753E-06  1920   0.440E-03    0.292E-05
DAV:  40    -0.188585818269E+02   -0.51981E-06   -0.18871E-06  1920   0.543E-03    0.296E-05
DAV:  41    -0.188585813229E+02    0.50404E-06   -0.24450E-06  1936   0.545E-03    0.293E-05
DAV:  42    -0.188585815276E+02   -0.20471E-06   -0.73760E-07  1904   0.373E-03    0.295E-05
DAV:  43    -0.188585817696E+02   -0.24199E-06   -0.99409E-07  1920   0.398E-03    0.291E-05
DAV:  44    -0.188585818637E+02   -0.94086E-07   -0.18590E-06  1920   0.523E-03    0.293E-05
DAV:  45    -0.188585819546E+02   -0.90980E-07   -0.24444E-06  1920   0.595E-03    0.292E-05
DAV:  46    -0.188585823066E+02   -0.35199E-06   -0.15878E-06  1920   0.497E-03    0.293E-05
DAV:  47    -0.188585818425E+02    0.46409E-06   -0.17222E-06  1920   0.526E-03    0.292E-05
DAV:  48    -0.188585817888E+02    0.53758E-07   -0.11699E-06  1920   0.428E-03    0.291E-05
DAV:  49    -0.188585814741E+02    0.31469E-06   -0.11560E-06  1920   0.417E-03    0.290E-05
DAV:  50    -0.188585823932E+02   -0.91913E-06   -0.19934E-06  1920   0.512E-03    0.294E-05
DAV:  51    -0.188585814643E+02    0.92889E-06   -0.15698E-06  1920   0.495E-03    0.291E-05
DAV:  52    -0.188585822176E+02   -0.75329E-06   -0.21257E-06  1920   0.488E-03    0.295E-05
DAV:  53    -0.188585815574E+02    0.66023E-06   -0.18357E-06  1920   0.451E-03    0.292E-05
DAV:  54    -0.188585823736E+02   -0.81617E-06   -0.13198E-06  1920   0.411E-03    0.296E-05
DAV:  55    -0.188585815487E+02    0.82481E-06   -0.10135E-06  1920   0.342E-03    0.290E-05
DAV:  56    -0.188585818609E+02   -0.31217E-06   -0.51521E-07  1864   0.284E-03    0.291E-05
DAV:  57    -0.188585817054E+02    0.15549E-06   -0.24014E-07  1800   0.209E-03    0.290E-05
DAV:  58    -0.188585815987E+02    0.10675E-06   -0.43637E-07  1864   0.266E-03    0.290E-05
DAV:  59    -0.188585817475E+02   -0.14882E-06   -0.85834E-07  1920   0.365E-03    0.290E-05
DAV:  60    -0.188585818739E+02   -0.12637E-06   -0.67973E-07  1904   0.340E-03    0.290E-05
DAV:  61    -0.188585819794E+02   -0.10551E-06   -0.30388E-07  1840   0.228E-03    0.291E-05
DAV:  62    -0.188585815328E+02    0.44654E-06   -0.65022E-07  1896   0.347E-03    0.290E-05
DAV:  63    -0.188585814768E+02    0.55997E-07   -0.46412E-07  1872   0.242E-03
  11 F= -.18858581E+02 E0= -.18857858E+02  d E =-.742388E-02  mag=    -0.0000
       N       E                     dE             d eps       ncg     rms          rms(c)
DAV:   1    -0.188877083172E+02   -0.29127E-01   -0.87461E-01  2320   0.760E+00    0.178E+00
DAV:   2    -0.188928673665E+02   -0.51590E-02   -0.44273E-01  2400   0.856E+00    0.149E+00
DAV:   3    -0.188656419775E+02    0.27225E-01   -0.13633E-01  2680   0.387E+00    0.337E-01
DAV:   4    -0.188645514984E+02    0.10905E-02   -0.86487E-03  2544   0.634E-01    0.120E-01
DAV:   5    -0.188631492162E+02    0.14023E-02   -0.70747E-04  2856   0.183E-01    0.689E-02
DAV:   6    -0.188613039317E+02    0.18453E-02   -0.23087E-04  2568   0.144E-01    0.225E-02
DAV:   7    -0.188608263623E+02    0.47757E-03   -0.58424E-05  2808   0.266E-02    0.143E-02
DAV:   8    -0.188605695219E+02    0.25684E-03   -0.33610E-05  2504   0.397E-02    0.415E-03
DAV:   9    -0.188605016634E+02    0.67859E-04   -0.19460E-05  2144   0.189E-02    0.154E-03
DAV:  10    -0.188604999497E+02    0.17137E-05   -0.58541E-05  2120   0.213E-02    0.889E-04
DAV:  11    -0.188604745226E+02    0.25427E-04   -0.77852E-05  2184   0.256E-02    0.424E-04
DAV:  12    -0.188604860215E+02   -0.11499E-04   -0.12869E-04  2312   0.270E-02    0.294E-04
DAV:  13    -0.188604655365E+02    0.20485E-04   -0.33846E-04  2232   0.430E-02    0.206E-04
DAV:  14    -0.188604780081E+02   -0.12472E-04   -0.18148E-04  2344   0.335E-02    0.217E-04
DAV:  15    -0.188604619256E+02    0.16082E-04   -0.80250E-04  2160   0.472E-02    0.182E-04
DAV:  16    -0.188604671825E+02   -0.52569E-05   -0.32510E-05  2096   0.146E-02    0.141E-04
DAV:  17    -0.188604638146E+02    0.33679E-05   -0.40163E-05  2144   0.130E-02    0.132E-04
DAV:  18    -0.188604569179E+02    0.68967E-05   -0.84023E-05  2096   0.214E-02    0.104E-04
DAV:  19    -0.188604538080E+02    0.31100E-05   -0.20605E-05  2056   0.117E-02    0.542E-05
DAV:  20    -0.188604497424E+02    0.40656E-05   -0.30652E-05  2088   0.174E-02    0.484E-05
DAV:  21    -0.188604547654E+02   -0.50231E-05   -0.98795E-06  1984   0.125E-02    0.529E-05
DAV:  22    -0.188604541190E+02    0.64647E-06   -0.10762E-05  1952   0.117E-02    0.346E-05
DAV:  23    -0.188604549505E+02   -0.83157E-06   -0.86125E-06  1920   0.976E-03    0.341E-05
DAV:  24    -0.188604573081E+02   -0.23576E-05   -0.42998E-06  1920   0.844E-03    0.332E-05
DAV:  25    -0.188604586483E+02   -0.13402E-05   -0.29356E-06  1920   0.699E-03    0.335E-05
DAV:  26    -0.188604598607E+02   -0.12124E-05   -0.43665E-06  1928   0.838E-03    0.312E-05
DAV:  27    -0.188604617683E+02   -0.19076E-05   -0.45300E-06  1936   0.824E-03    0.315E-05
DAV:  28    -0.188604615726E+02    0.19570E-06   -0.28699E-06  1920   0.750E-03    0.307E-05
DAV:  29    -0.188604620769E+02   -0.50425E-06   -0.37815E-06  1920   0.766E-03    0.299E-05
DAV:  30    -0.188604621778E+02   -0.10093E-06   -0.28968E-06  1920   0.667E-03    0.301E-05
DAV:  31    -0.188604629959E+02   -0.81816E-06   -0.22364E-06  1920   0.662E-03    0.297E-05
DAV:  32    -0.188604624747E+02    0.52128E-06   -0.20885E-06  1920   0.609E-03    0.299E-05
DAV:  33    -0.188604634112E+02   -0.93652E-06   -0.13427E-06  1920   0.470E-03    0.294E-05
DAV:  34    -0.188604628118E+02    0.59935E-06   -0.15859E-06  1920   0.497E-03    0.295E-05
DAV:  35    -0.188604624219E+02    0.38993E-06   -0.12093E-06  1920   0.423E-03    0.295E-05
DAV:  36    -0.188604626751E+02   -0.25318E-06   -0.67570E-07  1888   0.313E-03    0.294E-05
DAV:  37    -0.188604631438E+02   -0.46872E-06   -0.96092E-07  1920   0.337E-03    0.291E-05
DAV:  38    -0.188604627693E+02    0.37454E-06   -0.13486E-06  1920   0.450E-03    0.294E-05
DAV:  39    -0.188604628922E+02   -0.12299E-06   -0.20270E-06  1920   0.568E-03    0.293E-05
DAV:  40    -0.188604628831E+02    0.91950E-08   -0.15924E-06  1920   0.554E-03    0.295E-05
DAV:  41    -0.188604627341E+02    0.14895E-06   -0.11841E-06  1920   0.482E-03    0.293E-05
DAV:  42    -0.188604633566E+02   -0.62249E-06   -0.16092E-06  1920   0.516E-03    0.294E-05
DAV:  43    -0.188604627239E+02    0.63266E-06   -0.11796E-06  1920   0.449E-03    0.292E-05
DAV:  44    -0.188604626421E+02    0.81805E-07   -0.12986E-06  1920   0.452E-03    0.294E-05
DAV:  45    -0.188604628988E+02   -0.25670E-06   -0.10835E-06  1920   0.381E-03    0.293E-05
DAV:  46    -0.188604627123E+02    0.18657E-06   -0.95249E-07  1920   0.349E-03    0.293E-05
DAV:  47    -0.188604630349E+02   -0.32259E-06   -0.39653E-07  1856   0.258E-03    0.291E-05
DAV:  48    -0.188604628545E+02    0.18036E-06   -0.12791E-06  1920   0.417E-03    0.293E-05
DAV:  49    -0.188604627796E+02    0.74864E-07   -0.14484E-06  1920   0.419E-03    0.292E-05
DAV:  50    -0.188604631025E+02   -0.32286E-06   -0.74637E-07  1888   0.326E-03    0.293E-05
DAV:  51    -0.188604626759E+02    0.42663E-06   -0.11149E-06  1896   0.396E-03    0.292E-05
DAV:  52    -0.188604626132E+02    0.62670E-07   -0.53678E-07  1880   0.287E-03
  12 F= -.18860463E+02 E0= -.18859583E+02  d E =-.930502E-02  mag=     0.0000
       N       E                     dE             d eps       ncg     rms          rms(c)
DAV:   1    -0.188799102725E+02   -0.19448E-01   -0.47935E-01  2368   0.556E+00    0.138E+00
DAV:   2    -0.188651703937E+02    0.14740E-01   -0.33300E-01  2400   0.607E+00    0.126E+00
DAV:   3    -0.188563303667E+02    0.88400E-02   -0.67903E-02  2664   0.361E+00    0.228E-01
DAV:   4    -0.188583081960E+02   -0.19778E-02   -0.16701E-02  2880   0.104E+00    0.289E-01
DAV:   5    -0.188570764831E+02    0.12317E-02   -0.51700E-03  2560   0.729E-01    0.667E-02
DAV:   6    -0.188586954032E+02   -0.16189E-02   -0.33395E-04  2680   0.126E-01    0.557E-02
DAV:   7    -0.188595733290E+02   -0.87793E-03   -0.18650E-04  2576   0.145E-01    0.793E-03
DAV:   8    -0.188596539924E+02   -0.80663E-04   -0.42378E-05  2336   0.320E-02    0.645E-03
DAV:   9    -0.188596187290E+02    0.35263E-04   -0.15952E-05  2496   0.155E-02    0.301E-03
DAV:  10    -0.188596497734E+02   -0.31044E-04   -0.10423E-05  2160   0.121E-02    0.172E-03
DAV:  11    -0.188596672740E+02   -0.17501E-04   -0.11257E-05  2008   0.109E-02    0.970E-04
DAV:  12    -0.188596909728E+02   -0.23699E-04   -0.15310E-05  2032   0.123E-02    0.164E-04
DAV:  13    -0.188597017390E+02   -0.10766E-04   -0.32561E-05  2096   0.160E-02    0.181E-04
DAV:  14    -0.188597087186E+02   -0.69797E-05   -0.55217E-05  2168   0.192E-02    0.135E-04
DAV:  15    -0.188597365699E+02   -0.27851E-04   -0.10598E-04  2304   0.244E-02    0.260E-04
DAV:  16    -0.188597418812E+02   -0.53113E-05   -0.27448E-04  2176   0.326E-02    0.917E-05
DAV:  17    -0.188597469398E+02   -0.50586E-05   -0.18082E-05  2024   0.114E-02    0.706E-05
DAV:  18    -0.188597456370E+02    0.13028E-05   -0.10706E-05  2088   0.989E-03    0.609E-05
DAV:  19    -0.188597423126E+02    0.33244E-05   -0.62681E-06  2008   0.855E-03    0.561E-05
DAV:  20    -0.188597363743E+02    0.59382E-05   -0.12094E-05  1968   0.117E-02    0.373E-05
DAV:  21    -0.188597342660E+02    0.21083E-05   -0.42119E-06  1936   0.806E-03    0.355E-05
DAV:  22    -0.188597346897E+02   -0.42372E-06   -0.52876E-06  1920   0.817E-03    0.322E-05
DAV:  23    -0.188597355628E+02   -0.87306E-06   -0.33363E-06  1920   0.727E-03    0.335E-05
DAV:  24    -0.188597371064E+02   -0.15436E-05   -0.65425E-06  1920   0.937E-03    0.316E-05
DAV:  25    -0.188597374913E+02   -0.38490E-06   -0.50942E-06  1920   0.877E-03    0.333E-05
DAV:  26    -0.188597351589E+02    0.23324E-05   -0.24433E-06  1920   0.688E-03    0.310E-05
DAV:  27    -0.188597348795E+02    0.27940E-06   -0.13898E-06  1920   0.552E-03    0.304E-05
DAV:  28    -0.188597332910E+02    0.15886E-05   -0.17454E-06  1920   0.612E-03    0.301E-05
DAV:  29    -0.188597329414E+02    0.34950E-06   -0.16710E-06  1920   0.590E-03    0.298E-05
DAV:  30    -0.188597324138E+02    0.52766E-06   -0.20289E-06  1920   0.624E-03    0.298E-05
DAV:  31    -0.188597324909E+02   -0.77141E-07   -0.19617E-06  1936   0.595E-03    0.294E-05
DAV:  32    -0.188597329582E+02   -0.46731E-06   -0.29134E-06  1920   0.661E-03    0.295E-05
[...]
       N       E                     dE             d eps       ncg     rms          rms(c)
DAV:   1    -0.188786868633E+02   -0.24022E-04   -0.53780E-03  2240   0.343E-01    0.628E-02
DAV:   2    -0.188781827835E+02    0.50408E-03   -0.74953E-04  2480   0.264E-01    0.446E-02
DAV:   3    -0.188783696511E+02   -0.18687E-03   -0.16132E-04  2400   0.150E-01    0.142E-02
DAV:   4    -0.188782865211E+02    0.83130E-04   -0.18693E-05  2336   0.215E-02    0.950E-03
DAV:   5    -0.188782098144E+02    0.76707E-04   -0.10300E-05  2408   0.287E-02    0.563E-03
DAV:   6    -0.188782468712E+02   -0.37057E-04   -0.10124E-05  2384   0.226E-02    0.148E-03
DAV:   7    -0.188782479243E+02   -0.10531E-05   -0.90630E-06  2008   0.112E-02    0.715E-04
DAV:   8    -0.188782624647E+02   -0.14540E-04   -0.26867E-05  2000   0.144E-02    0.529E-04
DAV:   9    -0.188782701357E+02   -0.76710E-05   -0.87693E-05  2120   0.231E-02    0.184E-04
DAV:  10    -0.188782743455E+02   -0.42097E-05   -0.14230E-04  2232   0.266E-02    0.157E-04
DAV:  11    -0.188782758299E+02   -0.14844E-05   -0.13306E-04  2120   0.265E-02    0.102E-04
DAV:  12    -0.188782774457E+02   -0.16159E-05   -0.14075E-05  2008   0.108E-02    0.706E-05
DAV:  13    -0.188782756127E+02    0.18330E-05   -0.43155E-06  1944   0.706E-03    0.483E-05
DAV:  14    -0.188782748786E+02    0.73404E-06   -0.49222E-06  1944   0.807E-03    0.407E-05
DAV:  15    -0.188782734303E+02    0.14483E-05   -0.52450E-06  1944   0.866E-03    0.368E-05
DAV:  16    -0.188782750255E+02   -0.15952E-05   -0.44298E-06  1928   0.783E-03    0.336E-05
DAV:  17    -0.188782746612E+02    0.36431E-06   -0.31149E-06  1920   0.733E-03    0.351E-05
DAV:  18    -0.188782740817E+02    0.57958E-06   -0.34289E-06  1920   0.751E-03    0.319E-05
DAV:  19    -0.188782746726E+02   -0.59099E-06   -0.16637E-06  1920   0.535E-03    0.330E-05
DAV:  20    -0.188782757472E+02   -0.10746E-05   -0.50444E-06  1920   0.863E-03    0.311E-05
DAV:  21    -0.188782760369E+02   -0.28965E-06   -0.31894E-06  1920   0.683E-03    0.322E-05
DAV:  22    -0.188782761634E+02   -0.12655E-06   -0.24456E-06  1920   0.646E-03    0.301E-05
DAV:  23    -0.188782751222E+02    0.10412E-05   -0.25483E-06  1920   0.667E-03    0.314E-05
DAV:  24    -0.188782755711E+02   -0.44888E-06   -0.17791E-06  1920   0.529E-03    0.297E-05
DAV:  25    -0.188782754311E+02    0.14000E-06   -0.22481E-06  1920   0.614E-03    0.307E-05
DAV:  26    -0.188782754233E+02    0.78498E-08   -0.23731E-06  1920   0.621E-03    0.299E-05
DAV:  27    -0.188782748524E+02    0.57087E-06   -0.26991E-06  1920   0.566E-03    0.304E-05
DAV:  28    -0.188782751873E+02   -0.33495E-06   -0.25714E-06  1920   0.608E-03    0.295E-05
DAV:  29    -0.188782749894E+02    0.19794E-06   -0.20613E-06  1920   0.570E-03    0.303E-05
DAV:  30    -0.188782750207E+02   -0.31309E-07   -0.20853E-06  1920   0.580E-03    0.296E-05
DAV:  31    -0.188782762599E+02   -0.12392E-05   -0.38278E-06  1920   0.648E-03    0.309E-05
DAV:  32    -0.188782753030E+02    0.95692E-06   -0.50840E-06  1920   0.784E-03    0.296E-05
DAV:  33    -0.188782752463E+02    0.56703E-07   -0.11312E-06  1928   0.418E-03    0.298E-05
DAV:  34    -0.188782752159E+02    0.30445E-07   -0.15470E-06  1920   0.504E-03    0.295E-05
DAV:  35    -0.188782750756E+02    0.14020E-06   -0.23865E-06  1920   0.554E-03    0.298E-05
DAV:  36    -0.188782749435E+02    0.13216E-06   -0.38671E-06  1920   0.713E-03    0.296E-05
DAV:  37    -0.188782746832E+02    0.26033E-06   -0.11315E-06  1920   0.384E-03    0.296E-05
DAV:  38    -0.188782752803E+02   -0.59713E-06   -0.94694E-07  1920   0.396E-03    0.294E-05
DAV:  39    -0.188782747856E+02    0.49465E-06   -0.17549E-06  1920   0.519E-03    0.297E-05
DAV:  40    -0.188782754831E+02   -0.69748E-06   -0.13552E-06  1920   0.434E-03    0.295E-05
DAV:  41    -0.188782747924E+02    0.69073E-06   -0.18557E-06  1920   0.545E-03    0.295E-05
DAV:  42    -0.188782748836E+02   -0.91246E-07   -0.77842E-07  1904   0.338E-03
  27 F= -.18878275E+02 E0= -.18877299E+02  d E =-.783416E-03  mag=     0.0000
       N       E                     dE             d eps       ncg     rms          rms(c)
DAV:   1    -0.188782856336E+02   -0.10841E-04   -0.34076E-04  2272   0.126E-01    0.285E-02
DAV:   2    -0.188785497607E+02   -0.26413E-03   -0.13940E-04  2424   0.132E-01    0.242E-02
DAV:   3    -0.188784143960E+02    0.13536E-03   -0.39046E-05  2400   0.729E-02    0.455E-03
DAV:   4    -0.188783907550E+02    0.23641E-04   -0.10597E-05  2240   0.167E-02    0.379E-03
DAV:   5    -0.188783714455E+02    0.19309E-04   -0.11647E-05  2088   0.189E-02    0.218E-03
DAV:   6    -0.188783105859E+02    0.60860E-04   -0.43797E-05  2264   0.205E-02    0.969E-04
DAV:   7    -0.188782976728E+02    0.12913E-04   -0.15346E-04  2208   0.308E-02    0.298E-04
DAV:   8    -0.188783204466E+02   -0.22774E-04   -0.14494E-04  2336   0.270E-02    0.229E-04
DAV:   9    -0.188782824176E+02    0.38029E-04   -0.64263E-04  2192   0.483E-02    0.263E-04
DAV:  10    -0.188783117446E+02   -0.29327E-04   -0.57917E-05  2216   0.182E-02    0.121E-04
DAV:  11    -0.188783133387E+02   -0.15941E-05   -0.73267E-05  2096   0.213E-02    0.713E-05
DAV:  12    -0.188783101291E+02    0.32097E-05   -0.49605E-06  2056   0.654E-03    0.610E-05
DAV:  13    -0.188783072057E+02    0.29234E-05   -0.31674E-06  1920   0.696E-03    0.551E-05
DAV:  14    -0.188783025499E+02    0.46558E-05   -0.61766E-06  1920   0.889E-03    0.415E-05
DAV:  15    -0.188783002183E+02    0.23317E-05   -0.47864E-06  1920   0.852E-03    0.334E-05
DAV:  16    -0.188783017357E+02   -0.15174E-05   -0.67716E-06  1920   0.904E-03    0.377E-05
DAV:  17    -0.188783026459E+02   -0.91021E-06   -0.60078E-06  1920   0.877E-03    0.331E-05
DAV:  18    -0.188783029896E+02   -0.34372E-06   -0.49500E-06  1920   0.796E-03    0.327E-05
DAV:  19    -0.188783029856E+02    0.40363E-08   -0.37336E-06  1920   0.722E-03    0.329E-05
DAV:  20    -0.188783026797E+02    0.30589E-06   -0.26906E-06  1920   0.654E-03    0.323E-05
DAV:  21    -0.188783026161E+02    0.63636E-07   -0.33615E-06  1920   0.722E-03    0.316E-05
DAV:  22    -0.188783028177E+02   -0.20160E-06   -0.31470E-06  1920   0.663E-03    0.308E-05
DAV:  23    -0.188783037965E+02   -0.97886E-06   -0.33565E-06  1920   0.765E-03    0.317E-05
DAV:  24    -0.188783030984E+02    0.69818E-06   -0.43044E-06  1920   0.737E-03    0.308E-05
DAV:  25    -0.188783036243E+02   -0.52594E-06   -0.27153E-06  1928   0.671E-03    0.302E-05
DAV:  26    -0.188783041930E+02   -0.56870E-06   -0.35407E-06  1928   0.715E-03    0.302E-05
DAV:  27    -0.188783031692E+02    0.10238E-05   -0.33962E-06  1920   0.725E-03    0.299E-05
DAV:  28    -0.188783040943E+02   -0.92508E-06   -0.24480E-06  1920   0.571E-03    0.303E-05
DAV:  29    -0.188783027571E+02    0.13372E-05   -0.42919E-06  1920   0.730E-03    0.301E-05
DAV:  30    -0.188783031917E+02   -0.43467E-06   -0.16611E-06  1920   0.493E-03    0.302E-05
DAV:  31    -0.188783030223E+02    0.16943E-06   -0.24932E-06  1920   0.567E-03    0.297E-05
DAV:  32    -0.188783031076E+02   -0.85249E-07   -0.22387E-06  1920   0.580E-03    0.295E-05
DAV:  33    -0.188783031342E+02   -0.26637E-07   -0.15382E-06  1920   0.530E-03    0.297E-05
DAV:  34    -0.188783041050E+02   -0.97077E-06   -0.17805E-06  1920   0.520E-03    0.297E-05
DAV:  35    -0.188783035005E+02    0.60447E-06   -0.13421E-06  1920   0.463E-03    0.298E-05
DAV:  36    -0.188783035125E+02   -0.12009E-07   -0.89291E-07  1920   0.414E-03
  28 F= -.18878304E+02 E0= -.18877327E+02  d E =-.286289E-04  mag=    -0.0000
       N       E                     dE             d eps       ncg     rms          rms(c)
DAV:   1    -0.188783182763E+02   -0.14776E-04   -0.65270E-04  2288   0.175E-01    0.395E-02
DAV:   2    -0.188786833037E+02   -0.36503E-03   -0.26363E-04  2440   0.183E-01    0.337E-02
DAV:   3    -0.188784903904E+02    0.19291E-03   -0.75264E-05  2408   0.101E-01    0.631E-03
DAV:   4    -0.188784588409E+02    0.31549E-04   -0.13452E-05  2240   0.204E-02    0.525E-03
DAV:   5    -0.188784306016E+02    0.28239E-04   -0.82869E-06  2400   0.219E-02    0.302E-03
DAV:   6    -0.188783507297E+02    0.79872E-04   -0.21013E-05  2080   0.179E-02    0.123E-03
DAV:   7    -0.188783419105E+02    0.88192E-05   -0.59574E-05  2208   0.214E-02    0.374E-04
DAV:   8    -0.188783464632E+02   -0.45527E-05   -0.12919E-04  2336   0.275E-02    0.292E-04
DAV:   9    -0.188783256526E+02    0.20811E-04   -0.45329E-04  2200   0.412E-02    0.216E-04
DAV:  10    -0.188783438060E+02   -0.18153E-04   -0.40483E-05  2040   0.170E-02    0.143E-04
DAV:  11    -0.188783464520E+02   -0.26460E-05   -0.25551E-05  2136   0.146E-02    0.960E-05
DAV:  12    -0.188783422485E+02    0.42036E-05   -0.72529E-06  1960   0.912E-03    0.579E-05
DAV:  13    -0.188783403030E+02    0.19455E-05   -0.77622E-06  1928   0.944E-03    0.421E-05
DAV:  14    -0.188783403581E+02   -0.55122E-07   -0.41406E-06  1920   0.832E-03    0.360E-05
DAV:  15    -0.188783416175E+02   -0.12594E-05   -0.32210E-06  1920   0.757E-03    0.333E-05
DAV:  16    -0.188783415599E+02    0.57670E-07   -0.39702E-06  1920   0.738E-03    0.335E-05
DAV:  17    -0.188783428076E+02   -0.12478E-05   -0.60403E-06  1928   0.897E-03    0.317E-05
DAV:  18    -0.188783427405E+02    0.67141E-07   -0.32758E-06  1928   0.736E-03    0.324E-05
DAV:  19    -0.188783431254E+02   -0.38492E-06   -0.55683E-06  1920   0.839E-03    0.322E-05
DAV:  20    -0.188783425855E+02    0.53990E-06   -0.52364E-06  1920   0.879E-03    0.317E-05
DAV:  21    -0.188783416253E+02    0.96022E-06   -0.36067E-06  1920   0.758E-03    0.308E-05
DAV:  22    -0.188783416088E+02    0.16549E-07   -0.35178E-06  1920   0.746E-03    0.310E-05
DAV:  23    -0.188783419101E+02   -0.30137E-06   -0.43919E-06  1920   0.784E-03    0.319E-05
DAV:  24    -0.188783412602E+02    0.64992E-06   -0.48941E-06  1920   0.822E-03    0.305E-05
DAV:  25    -0.188783416012E+02   -0.34100E-06   -0.25186E-06  1920   0.625E-03    0.303E-05
DAV:  26    -0.188783419513E+02   -0.35009E-06   -0.24360E-06  1920   0.615E-03    0.299E-05
DAV:  27    -0.188783418317E+02    0.11962E-06   -0.41576E-06  1920   0.730E-03    0.303E-05
DAV:  28    -0.188783410449E+02    0.78680E-06   -0.39485E-06  1920   0.753E-03    0.299E-05
DAV:  29    -0.188783412703E+02   -0.22543E-06   -0.18410E-06  1920   0.542E-03    0.299E-05
DAV:  30    -0.188783415761E+02   -0.30582E-06   -0.20873E-06  1920   0.568E-03    0.295E-05
DAV:  31    -0.188783410647E+02    0.51149E-06   -0.15751E-06  1920   0.501E-03    0.298E-05
DAV:  32    -0.188783416827E+02   -0.61805E-06   -0.12019E-06  1920   0.414E-03    0.295E-05
DAV:  33    -0.188783405186E+02    0.11641E-05   -0.27064E-06  1920   0.578E-03    0.300E-05
DAV:  34    -0.188783412744E+02   -0.75577E-06   -0.48208E-07  1896   0.285E-03    0.294E-05
DAV:  35    -0.188783410919E+02    0.18246E-06   -0.85588E-07  1912   0.364E-03    0.296E-05
DAV:  36    -0.188783416610E+02   -0.56903E-06   -0.17255E-06  1920   0.493E-03    0.294E-05
DAV:  37    -0.188783409146E+02    0.74635E-06   -0.22325E-06  1920   0.552E-03    0.297E-05
DAV:  38    -0.188783413056E+02   -0.39097E-06   -0.11695E-06  1920   0.434E-03    0.293E-05
DAV:  39    -0.188783421226E+02   -0.81702E-06   -0.21721E-06  1920   0.525E-03    0.298E-05
DAV:  40    -0.188783411063E+02    0.10163E-05   -0.17978E-06  1920   0.504E-03    0.293E-05
DAV:  41    -0.188783417285E+02   -0.62220E-06   -0.16681E-06  1920   0.428E-03    0.297E-05
DAV:  42    -0.188783414907E+02    0.23781E-06   -0.26277E-06  1912   0.495E-03    0.293E-05
DAV:  43    -0.188783414281E+02    0.62600E-07   -0.12072E-06  1928   0.423E-03    0.296E-05
DAV:  44    -0.188783412803E+02    0.14778E-06   -0.90449E-07  1920   0.397E-03    0.293E-05
DAV:  45    -0.188783414920E+02   -0.21177E-06   -0.97529E-07  1928   0.391E-03    0.296E-05
DAV:  46    -0.188783413010E+02    0.19107E-06   -0.12485E-06  1920   0.402E-03    0.294E-05
DAV:  47    -0.188783414634E+02   -0.16239E-06   -0.57954E-07  1888   0.314E-03    0.295E-05
DAV:  48    -0.188783417762E+02   -0.31280E-06   -0.10515E-06  1904   0.415E-03    0.292E-05
DAV:  49    -0.188783414854E+02    0.29075E-06   -0.11900E-06  1920   0.449E-03    0.295E-05
DAV:  50    -0.188783413776E+02    0.10786E-06   -0.73993E-07  1912   0.361E-03    0.293E-05
DAV:  51    -0.188783420331E+02   -0.65553E-06   -0.12345E-06  1920   0.400E-03    0.296E-05
DAV:  52    -0.188783424305E+02   -0.39741E-06   -0.79938E-07  1888   0.322E-03    0.295E-05
DAV:  53    -0.188783415941E+02    0.83644E-06   -0.87792E-07  1856   0.314E-03    0.294E-05
DAV:  54    -0.188783418636E+02   -0.26950E-06   -0.10487E-06  1920   0.380E-03    0.293E-05
DAV:  55    -0.188783416854E+02    0.17812E-06   -0.13094E-06  1920   0.399E-03    0.295E-05
DAV:  56    -0.188783412213E+02    0.46410E-06   -0.78243E-07  1864   0.309E-03    0.293E-05
DAV:  57    -0.188783414315E+02   -0.21019E-06   -0.48042E-07  1864   0.288E-03    0.294E-05
DAV:  58    -0.188783411511E+02    0.28043E-06   -0.72047E-07  1888   0.336E-03    0.294E-05
DAV:  59    -0.188783411040E+02    0.47125E-07   -0.31754E-07  1840   0.220E-03
  29 F= -.18878341E+02 E0= -.18877362E+02  d E =-.662203E-04  mag=     0.0000
       N       E                     dE             d eps       ncg     rms          rms(c)
DAV:   1    -0.188783455090E+02   -0.43579E-05   -0.42666E-04  2240   0.119E-01    0.256E-02
DAV:   2    -0.188781399167E+02    0.20559E-03   -0.12638E-04  2256   0.121E-01    0.232E-02
DAV:   3    -0.188782357892E+02   -0.95873E-04   -0.35068E-05  2400   0.668E-02    0.523E-03
DAV:   4    -0.188782044919E+02    0.31297E-04   -0.99811E-06  2240   0.148E-02    0.341E-03
DAV:   5    -0.188781654893E+02    0.39003E-04   -0.11592E-05  2088   0.174E-02    0.260E-03
DAV:   6    -0.188781835576E+02   -0.18068E-04   -0.69031E-05  2176   0.228E-02    0.745E-04
DAV:   7    -0.188781578675E+02    0.25690E-04   -0.17330E-04  2216   0.312E-02    0.297E-04
DAV:   8    -0.188781909685E+02   -0.33101E-04   -0.29414E-05  2152   0.169E-02    0.212E-04
DAV:   9    -0.188781931659E+02   -0.21974E-05   -0.85323E-06  1976   0.101E-02    0.115E-04
DAV:  10    -0.188781960843E+02   -0.29184E-05   -0.14426E-05  1960   0.113E-02    0.584E-05
DAV:  11    -0.188781955139E+02    0.57032E-06   -0.28937E-05  1984   0.152E-02    0.538E-05
DAV:  12    -0.188781978191E+02   -0.23051E-05   -0.14449E-05  1944   0.125E-02    0.426E-05
DAV:  13    -0.188781975534E+02    0.26566E-06   -0.27428E-06  1920   0.634E-03    0.390E-05
DAV:  14    -0.188781977302E+02   -0.17675E-06   -0.29427E-06  1920   0.635E-03    0.325E-05
DAV:  15    -0.188781972181E+02    0.51208E-06   -0.38177E-06  1920   0.774E-03    0.310E-05
DAV:  16    -0.188781979168E+02   -0.69868E-06   -0.49032E-06  1944   0.865E-03    0.315E-05
DAV:  17    -0.188781981972E+02   -0.28037E-06   -0.79094E-06  1920   0.942E-03    0.307E-05
DAV:  18    -0.188781979774E+02    0.21973E-06   -0.29727E-06  1928   0.650E-03    0.303E-05
DAV:  19    -0.188781983799E+02   -0.40247E-06   -0.25484E-06  1920   0.612E-03    0.303E-05
DAV:  20    -0.188781986194E+02   -0.23955E-06   -0.12753E-06  1920   0.482E-03    0.298E-05
DAV:  21    -0.188781983032E+02    0.31630E-06   -0.22149E-06  1928   0.598E-03    0.297E-05
DAV:  22    -0.188781979120E+02    0.39111E-06   -0.18451E-06  1920   0.522E-03    0.296E-05
DAV:  23    -0.188781985386E+02   -0.62657E-06   -0.21131E-06  1920   0.541E-03    0.297E-05
DAV:  24    -0.188781977961E+02    0.74249E-06   -0.26515E-06  1920   0.647E-03    0.297E-05
DAV:  25    -0.188781987445E+02   -0.94837E-06   -0.25068E-06  1920   0.568E-03    0.296E-05
DAV:  26    -0.188781990198E+02   -0.27525E-06   -0.30889E-06  1920   0.647E-03    0.296E-05
DAV:  27    -0.188781987858E+02    0.23392E-06   -0.27429E-06  1920   0.647E-03    0.296E-05
DAV:  28    -0.188781986892E+02    0.96677E-07   -0.15266E-06  1920   0.526E-03    0.295E-05
DAV:  29    -0.188781984193E+02    0.26987E-06   -0.15765E-06  1920   0.508E-03    0.295E-05
DAV:  30    -0.188781982495E+02    0.16979E-06   -0.91884E-07  1904   0.370E-03    0.294E-05
DAV:  31    -0.188781986154E+02   -0.36594E-06   -0.62236E-07  1888   0.297E-03    0.293E-05
DAV:  32    -0.188781986563E+02   -0.40857E-07   -0.67760E-07  1896   0.328E-03
  30 F= -.18878199E+02 E0= -.18877223E+02  d E =0.142448E-03  mag=     0.0000
       N       E                     dE             d eps       ncg     rms          rms(c)
DAV:   1    -0.188781994493E+02   -0.83391E-06   -0.59541E-05  2240   0.444E-02    0.946E-03
DAV:   2    -0.188782728080E+02   -0.73359E-04   -0.19419E-05  2256   0.456E-02    0.856E-03
DAV:   3    -0.188782360234E+02    0.36785E-04   -0.72341E-06  2144   0.260E-02    0.192E-03
DAV:   4    -0.188782485855E+02   -0.12562E-04   -0.41406E-06  1936   0.886E-03    0.125E-03
DAV:   5    -0.188782630191E+02   -0.14434E-04   -0.11777E-05  2032   0.116E-02    0.982E-04
DAV:   6    -0.188782458916E+02    0.17128E-04   -0.60621E-05  2144   0.216E-02    0.381E-04
DAV:   7    -0.188782530261E+02   -0.71345E-05   -0.69625E-05  2208   0.227E-02    0.155E-04
DAV:   8    -0.188782558101E+02   -0.27840E-05   -0.75043E-05  2072   0.219E-02    0.864E-05
DAV:   9    -0.188782532074E+02    0.26027E-05   -0.74729E-06  1976   0.938E-03    0.571E-05
DAV:  10    -0.188782501532E+02    0.30541E-05   -0.68391E-06  1920   0.949E-03    0.418E-05
DAV:  11    -0.188782506557E+02   -0.50248E-06   -0.65913E-06  1920   0.965E-03    0.379E-05
DAV:  12    -0.188782508289E+02   -0.17322E-06   -0.45759E-06  1920   0.775E-03    0.367E-05
DAV:  13    -0.188782510314E+02   -0.20249E-06   -0.40361E-06  1920   0.772E-03    0.322E-05
DAV:  14    -0.188782520661E+02   -0.10347E-05   -0.31318E-06  1920   0.659E-03    0.331E-05
DAV:  15    -0.188782518724E+02    0.19371E-06   -0.27159E-06  1920   0.702E-03    0.301E-05
DAV:  16    -0.188782523413E+02   -0.46885E-06   -0.23272E-06  1920   0.660E-03    0.310E-05
DAV:  17    -0.188782529797E+02   -0.63840E-06   -0.39154E-06  1920   0.776E-03    0.307E-05
DAV:  18    -0.188782521949E+02    0.78479E-06   -0.21100E-06  1920   0.581E-03    0.302E-05
DAV:  19    -0.188782516616E+02    0.53335E-06   -0.27307E-06  1920   0.656E-03    0.297E-05
DAV:  20    -0.188782515089E+02    0.15262E-06   -0.17254E-06  1920   0.531E-03    0.300E-05
DAV:  21    -0.188782512398E+02    0.26913E-06   -0.24941E-06  1920   0.610E-03    0.296E-05
DAV:  22    -0.188782513962E+02   -0.15640E-06   -0.29203E-06  1920   0.651E-03    0.300E-05
DAV:  23    -0.188782518933E+02   -0.49711E-06   -0.22519E-06  1920   0.571E-03    0.298E-05
DAV:  24    -0.188782529767E+02   -0.10833E-05   -0.48435E-06  1944   0.807E-03    0.306E-05
DAV:  25    -0.188782514271E+02    0.15496E-05   -0.49288E-06  1936   0.773E-03    0.294E-05
DAV:  26    -0.188782510639E+02    0.36321E-06   -0.12824E-06  1904   0.458E-03    0.298E-05
DAV:  27    -0.188782519274E+02   -0.86359E-06   -0.28232E-06  1920   0.529E-03    0.296E-05
DAV:  28    -0.188782514273E+02    0.50011E-06   -0.41386E-06  1920   0.695E-03    0.298E-05
DAV:  29    -0.188782512464E+02    0.18090E-06   -0.93363E-07  1920   0.387E-03    0.296E-05
DAV:  30    -0.188782517726E+02   -0.52619E-06   -0.19801E-06  1920   0.564E-03    0.297E-05
DAV:  31    -0.188782517995E+02   -0.26867E-07   -0.18578E-06  1920   0.543E-03    0.295E-05
DAV:  32    -0.188782513580E+02    0.44153E-06   -0.16278E-06  1920   0.521E-03    0.296E-05
DAV:  33    -0.188782512271E+02    0.13087E-06   -0.90995E-07  1904   0.372E-03    0.293E-05
DAV:  34    -0.188782520336E+02   -0.80651E-06   -0.10931E-06  1904   0.398E-03    0.298E-05
DAV:  35    -0.188782516730E+02    0.36063E-06   -0.15494E-06  1920   0.479E-03    0.293E-05
DAV:  36    -0.188782518207E+02   -0.14774E-06   -0.10052E-06  1920   0.423E-03    0.296E-05
DAV:  37    -0.188782517448E+02    0.75870E-07   -0.93474E-07  1904   0.366E-03
  31 F= -.18878252E+02 E0= -.18877275E+02  d E =0.893591E-04  mag=     0.0000
