       N       E                     dE             d eps       ncg     rms          rms(c)
DAV:   1     0.571774836435E+02    0.57177E+02   -0.35653E+03  5824   0.484E+02
DAV:   2    -0.115095874539E+02   -0.68687E+02   -0.58569E+02  8272   0.105E+02
DAV:   3    -0.167205786854E+02   -0.52110E+01   -0.51670E+01  7992   0.311E+01
DAV:   4    -0.167807536050E+02   -0.60175E-01   -0.60156E-01  7656   0.417E+00
DAV:   5    -0.167813623221E+02   -0.60872E-03   -0.60864E-03  7528   0.387E-01    0.101E+01
DAV:   6    -0.155851374155E+02    0.11962E+01   -0.10573E+00  7392   0.376E+00    0.575E+00
DAV:   7    -0.156117024785E+02   -0.26565E-01   -0.68348E-01  7992   0.334E+00    0.330E+00
DAV:   8    -0.156147774074E+02   -0.30749E-02   -0.21775E-01  7800   0.206E+00    0.180E+00
DAV:   9    -0.157041124121E+02   -0.89335E-01   -0.12222E-02  6992   0.676E-01    0.128E+00
DAV:  10    -0.158110155817E+02   -0.10690E+00   -0.11472E-02  6624   0.578E-01    0.851E-01
DAV:  11    -0.158647618254E+02   -0.53746E-01   -0.29341E-03  6944   0.342E-01    0.519E-01
DAV:  12    -0.158985640303E+02   -0.33802E-01   -0.49634E-03  6560   0.238E-01    0.159E-01
DAV:  13    -0.159075482023E+02   -0.89842E-02   -0.11416E-03  6384   0.143E-01    0.408E-02
DAV:  14    -0.159096343995E+02   -0.20862E-02   -0.23953E-04  6008   0.678E-02    0.212E-02
DAV:  15    -0.159108689184E+02   -0.12345E-02   -0.13435E-04  6312   0.402E-02    0.117E-02
DAV:  16    -0.159122388095E+02   -0.13699E-02   -0.16956E-04  6304   0.395E-02    0.504E-03
DAV:  17    -0.159124970572E+02   -0.25825E-03   -0.29162E-05  6344   0.187E-02    0.364E-03
DAV:  18    -0.159125489939E+02   -0.51937E-04   -0.64987E-05  6472   0.182E-02    0.192E-03
DAV:  19    -0.159125493240E+02   -0.33015E-06   -0.30161E-06  6560   0.528E-03    0.112E-03
DAV:  20    -0.159125907974E+02   -0.41473E-04   -0.22346E-06  6240   0.375E-03    0.790E-04
DAV:  21    -0.159125928151E+02   -0.20177E-05   -0.50960E-07  6352   0.231E-03    0.393E-04
DAV:  22    -0.159125958400E+02   -0.30249E-05   -0.52215E-07  6096   0.183E-03    0.289E-04
DAV:  23    -0.159125980308E+02   -0.21908E-05   -0.56252E-07  6184   0.193E-03    0.145E-04
DAV:  24    -0.159125968271E+02    0.12036E-05   -0.56141E-08  6072   0.110E-03    0.810E-05
DAV:  25    -0.159125989630E+02   -0.21359E-05   -0.24016E-07  6368   0.199E-03    0.481E-05
DAV:  26    -0.159126019987E+02   -0.30356E-05   -0.10098E-07  6744   0.178E-03    0.389E-05
DAV:  27    -0.159126025736E+02   -0.57495E-06   -0.38235E-08  6312   0.147E-03    0.424E-05
DAV:  28    -0.159126001502E+02    0.24235E-05   -0.12191E-07  6104   0.211E-03    0.286E-05
DAV:  29    -0.159126008330E+02   -0.68287E-06   -0.39068E-08  6312   0.128E-03    0.146E-05
DAV:  30    -0.159125978554E+02    0.29777E-05   -0.10192E-07  6112   0.203E-03    0.220E-05
DAV:  31    -0.159125977394E+02    0.11601E-06   -0.99744E-09  6224   0.916E-04    0.130E-05
DAV:  32    -0.159125982140E+02   -0.47459E-06   -0.83239E-09  6080   0.830E-04    0.113E-05
DAV:  33    -0.159125983139E+02   -0.99983E-07   -0.58499E-09  6120   0.715E-04
   1 F= -.15912598E+02 E0= -.15912346E+02  d E =-.159126E+02  mag=     0.0000
       N       E                     dE             d eps       ncg     rms          rms(c)
DAV:   1    -0.159117039871E+02    0.89423E-03   -0.48387E-02  6304   0.124E+00    0.168E-01
DAV:   2    -0.159117111799E+02   -0.71928E-05   -0.74811E-04  6840   0.135E-01    0.115E-01
DAV:   3    -0.159112598742E+02    0.45131E-03   -0.23696E-04  6632   0.658E-02    0.326E-02
DAV:   4    -0.159113069991E+02   -0.47125E-04   -0.74841E-06  6216   0.144E-02    0.136E-02
DAV:   5    -0.159113347397E+02   -0.27741E-04   -0.30098E-07  6416   0.281E-03    0.841E-03
DAV:   6    -0.159114383018E+02   -0.10356E-03   -0.16024E-06  6096   0.547E-03    0.223E-03
DAV:   7    -0.159114458402E+02   -0.75384E-05   -0.17691E-07  6664   0.164E-03    0.189E-03
DAV:   8    -0.159114604046E+02   -0.14564E-04   -0.25261E-06  6424   0.411E-03    0.832E-04
DAV:   9    -0.159114661611E+02   -0.57565E-05   -0.62779E-07  6600   0.278E-03    0.400E-04
DAV:  10    -0.159114626812E+02    0.34799E-05   -0.29044E-07  6392   0.223E-03    0.271E-04
DAV:  11    -0.159114607160E+02    0.19652E-05   -0.85987E-08  6336   0.141E-03    0.239E-04
DAV:  12    -0.159114653063E+02   -0.45903E-05   -0.57088E-08  6208   0.807E-04    0.158E-04
DAV:  13    -0.159114657715E+02   -0.46520E-06   -0.24749E-07  6896   0.188E-03    0.870E-05
DAV:  14    -0.159114651705E+02    0.60107E-06   -0.78151E-08  6296   0.175E-03    0.857E-05
DAV:  15    -0.159114633477E+02    0.18227E-05   -0.51411E-08  6240   0.159E-03    0.231E-05
DAV:  16    -0.159114618750E+02    0.14727E-05   -0.18464E-08  6288   0.100E-03    0.372E-05
DAV:  17    -0.159114607980E+02    0.10770E-05   -0.24204E-08  6096   0.113E-03    0.129E-05
DAV:  18    -0.159114602328E+02    0.56516E-06   -0.21212E-08  6392   0.103E-03    0.184E-05
DAV:  19    -0.159114599549E+02    0.27788E-06   -0.64327E-09  6416   0.692E-04    0.134E-05
DAV:  20    -0.159114592247E+02    0.73027E-06   -0.93267E-09  6048   0.933E-04    0.118E-05
DAV:  21    -0.159114589800E+02    0.24463E-06   -0.45495E-09  6336   0.547E-04    0.115E-05
DAV:  22    -0.159114589562E+02    0.23823E-07   -0.17084E-09  6184   0.287E-04
   2 F= -.15911459E+02 E0= -.15911207E+02  d E =0.113936E-02  mag=     0.0000
       N       E                     dE             d eps       ncg     rms          rms(c)
DAV:   1    -0.159132344408E+02   -0.17755E-02   -0.21382E-02  6344   0.823E-01    0.115E-01
DAV:   2    -0.159129778845E+02    0.25656E-03   -0.30690E-04  6888   0.894E-02    0.760E-02
DAV:   3    -0.159129879543E+02   -0.10070E-04   -0.11175E-04  6760   0.449E-02    0.165E-02
DAV:   4    -0.159129573542E+02    0.30600E-04   -0.50716E-06  6184   0.118E-02    0.716E-03
DAV:   5    -0.159128791190E+02    0.78235E-04   -0.32814E-06  6088   0.734E-03    0.370E-03
DAV:   6    -0.159128816280E+02   -0.25090E-05   -0.42568E-07  6520   0.330E-03    0.293E-03
DAV:   7    -0.159128937768E+02   -0.12149E-04   -0.29137E-07  6072   0.247E-03    0.166E-03
DAV:   8    -0.159129178339E+02   -0.24057E-04   -0.17258E-06  6016   0.423E-03    0.102E-03
DAV:   9    -0.159129241740E+02   -0.63401E-05   -0.22271E-07  6240   0.183E-03    0.740E-04
DAV:  10    -0.159129295671E+02   -0.53931E-05   -0.16058E-07  5896   0.174E-03    0.422E-04
DAV:  11    -0.159129264233E+02    0.31438E-05   -0.53435E-08  6224   0.116E-03    0.157E-04
DAV:  12    -0.159129253973E+02    0.10259E-05   -0.18986E-07  6056   0.185E-03    0.144E-04
DAV:  13    -0.159129262356E+02   -0.83826E-06   -0.24370E-08  6344   0.117E-03    0.853E-05
DAV:  14    -0.159129274912E+02   -0.12556E-05   -0.30489E-08  6232   0.143E-03    0.234E-05
DAV:  15    -0.159129291957E+02   -0.17045E-05   -0.10832E-08  6528   0.859E-04    0.304E-05
DAV:  16    -0.159129302308E+02   -0.10352E-05   -0.14962E-08  6160   0.101E-03    0.126E-05
DAV:  17    -0.159129307178E+02   -0.48694E-06   -0.22280E-08  6552   0.112E-03    0.143E-05
DAV:  18    -0.159129310139E+02   -0.29611E-06   -0.70391E-09  6520   0.749E-04    0.122E-05
DAV:  19    -0.159129320858E+02   -0.10719E-05   -0.13068E-08  6336   0.119E-03    0.118E-05
DAV:  20    -0.159129323060E+02   -0.22021E-06   -0.34409E-09  6216   0.573E-04    0.118E-05
DAV:  21    -0.159129323549E+02   -0.48952E-07   -0.11331E-09  6088   0.296E-04
   3 F= -.15912932E+02 E0= -.15912680E+02  d E =-.334041E-03  mag=     0.0000
       N       E                     dE             d eps       ncg     rms          rms(c)
DAV:   1    -0.159129362519E+02   -0.39459E-05   -0.51024E-05  5896   0.403E-02    0.542E-03
DAV:   2    -0.159129288823E+02    0.73696E-05   -0.94621E-07  5936   0.512E-03    0.373E-03
DAV:   3    -0.159129363446E+02   -0.74624E-05   -0.43854E-07  6576   0.349E-03    0.882E-04
DAV:   4    -0.159129338527E+02    0.24919E-05   -0.25625E-08  6576   0.992E-04    0.306E-04
DAV:   5    -0.159129327468E+02    0.11058E-05   -0.99665E-09  6296   0.661E-04    0.213E-04
DAV:   6    -0.159129288891E+02    0.38577E-05   -0.46452E-08  6616   0.121E-03    0.116E-04
DAV:   7    -0.159129290717E+02   -0.18257E-06   -0.58425E-09  6624   0.509E-04    0.880E-05
DAV:   8    -0.159129295700E+02   -0.49832E-06   -0.67454E-08  6264   0.153E-03    0.168E-05
DAV:   9    -0.159129302906E+02   -0.72058E-06   -0.33699E-08  6488   0.120E-03    0.397E-05
DAV:  10    -0.159129311754E+02   -0.88484E-06   -0.36745E-08  6400   0.135E-03    0.227E-05
DAV:  11    -0.159129312591E+02   -0.83700E-07   -0.62387E-09  6816   0.614E-04
   4 F= -.15912931E+02 E0= -.15912679E+02  d E =-.332945E-03  mag=    -0.0000
