 vasp.5.4.1 24Jun15 (build Dec 08 2016 12:24:04) complex                        
  
 executed on           IFC91_ompi date 2018.04.16  10:54:47
 running on   32 total cores
 distrk:  each k-point on   32 cores,    1 groups
 distr:  one band on NCORES_PER_BAND=   4 cores,    8 groups


--------------------------------------------------------------------------------------------------------


 INCAR:
 POTCAR:    PAW_PBE C 08Apr2002                   

 ----------------------------------------------------------------------------- 
|                                                                             |
|  ADVICE TO THIS USER RUNNING 'VASP/VAMP'   (HEAR YOUR MASTER'S VOICE ...):  |
|                                                                             |
|      You have switched on vdW-DFT.                                          |
|      This routine was written and supplied by Jiri Klimes.                  |
|      We recommed that you carefully read and cite the following             |
|      publication                                                            |
|      J. Klimes, D.R. Bowler, A. Michelides                                  |
|        J. Phys.: Cond Matt. 22 022201 (2010)                                |
|      J. Klimes, D.R. Bowler, A. Michelides                                  |
|        Phys. Rev. B. 83, 195131 (2011)                                      |
|      and references therein.                                                |
|                                                                             |
 ----------------------------------------------------------------------------- 

 POTCAR:    PAW_PBE C 08Apr2002                   
   VRHFIN =C: s2p2                                                              
   LEXCH  = PE                                                                  
   EATOM  =   147.1560 eV,   10.8157 Ry                                         
                                                                                
   TITEL  = PAW_PBE C 08Apr2002                                                 
   LULTRA =        F    use ultrasoft PP ?                                      
   IUNSCR =        1    unscreen: 0-lin 1-nonlin 2-no                           
   RPACOR =    1.200    partial core radius                                     
   POMASS =   12.011; ZVAL   =    4.000    mass and valenz                      
   RCORE  =    1.500    outmost cutoff radius                                   
   RWIGS  =    1.630; RWIGS  =    0.863    wigner-seitz radius (au A)           
   ENMAX  =  400.000; ENMIN  =  300.000 eV                                      
   ICORE  =        2    local potential                                         
   LCOR   =        T    correct aug charges                                     
   LPAW   =        T    paw PP                                                  
   EAUG   =  644.873                                                            
   DEXC   =    0.000                                                            
   RMAX   =    1.529    core radius for proj-oper                               
   RAUG   =    1.300    factor for augmentation sphere                          
   RDEP   =    1.501    radius for radial grids                                 
   RDEPT  =    1.300    core radius for aug-charge                              
                                                                                
   Atomic configuration                                                         
    4 entries                                                                   
     n  l   j            E        occ.                                          
     1  0  0.50      -273.3789   2.0000                                         
     2  0  0.50       -13.7508   2.0000                                         
     2  1  0.50        -5.2854   2.0000                                         
     3  2  1.50        -5.4423   0.0000                                         
   Description                                                                  
     l       E           TYP  RCUT    TYP  RCUT                                 
     0    -13.7508458     23  1.200                                             
     0     -8.2022199     23  1.200                                             
     1     -5.2854383     23  1.500                                             
     1     34.0145650     23  1.500                                             
     2     -5.4423304      7  1.500                                             
  local pseudopotential read in
  partial core-charges read in
  partial kinetic energy density read in
  atomic valenz-charges read in
  non local Contribution for L=           0  read in
    real space projection operators read in
  non local Contribution for L=           0  read in
    real space projection operators read in
  non local Contribution for L=           1  read in
    real space projection operators read in
  non local Contribution for L=           1  read in
    real space projection operators read in
    PAW grid and wavefunctions read in
 
   number of l-projection  operators is LMAX  =           4
   number of lm-projection operators is LMMAX =           8
 

 ----------------------------------------------------------------------------- 
|                                                                             |
|  ADVICE TO THIS USER RUNNING 'VASP/VAMP'   (HEAR YOUR MASTER'S VOICE ...):  |
|                                                                             |
|      You enforced a specific xc-type in the INCAR file,                     |
|      a different type was found on the POTCAR file                          |
|          I HOPE YOU KNOW, WHAT YOU ARE  DOING                               |
|                                                                             |
 ----------------------------------------------------------------------------- 

  PAW_PBE C 08Apr2002                   :
 energy of atom  1       EATOM= -147.1560
 kinetic energy error for atom=    0.0022 (will be added to EATOM!!)
 
 
 POSCAR: Surf-mp-48                              
  positions in direct lattice
  No initial velocities read in
 exchange correlation table for  LEXCH =       42
   RHO(1)=    0.500       N(1)  =     2000
   RHO(2)=  100.500       N(2)  =     4000
 


--------------------------------------------------------------------------------------------------------


 ion  position               nearest neighbor table
   1  0.333  0.667  0.098-   2 1.42   2 1.42   2 1.42
   2  0.000  0.000  0.098-   1 1.42   1 1.42   1 1.42
 
  LATTYP: Found a hexagonal cell.
 ALAT       =     2.4672900000
 C/A-ratio  =     8.1060596849
  
  Lattice vectors:
  
 A1 = (   1.2336450000,  -2.1367370000,   0.0000000000)
 A2 = (   1.2336450000,   2.1367370000,   0.0000000000)
 A3 = (   0.0000000000,   0.0000000000,  20.0000000000)


Analysis of symmetry for initial positions (statically):
=====================================================================
 Subroutine PRICEL returns:
 Original cell was already a primitive cell.
 

 Routine SETGRP: Setting up the symmetry group for a 
 hexagonal supercell.


 Subroutine GETGRP returns: Found 24 space group operations
 (whereof  6 operations were pure point group operations)
 out of a pool of 24 trial point group operations.


The static configuration has the point symmetry C_3v.
 The point group associated with its full space group is D_6h.


Analysis of symmetry for dynamics (positions and initial velocities):
=====================================================================
 Subroutine PRICEL returns:
 Original cell was already a primitive cell.
 

 Routine SETGRP: Setting up the symmetry group for a 
 hexagonal supercell.


 Subroutine GETGRP returns: Found 24 space group operations
 (whereof  6 operations were pure point group operations)
 out of a pool of 24 trial point group operations.


The dynamic configuration has the point symmetry C_3v.
 The point group associated with its full space group is D_6h.


Analysis of magnetic symmetry:
=====================================================================
 Subroutine PRICEL returns:
 Original cell was already a primitive cell.
 

 Subroutine MAGSYM returns: Found 24 space group operations
 (whereof  6 operations were pure point group operations)
 out of a pool of 24 trial space group operations
 (whereof  6 operations were pure point group operations)
 and found also     1 'primitive' translations


The magnetic configuration has the point symmetry C_3v.
 The point group associated with its full space group is D_6h.
 
 
 KPOINTS: Automatic kpoint scheme                 

Automatic generation of k-mesh.
Space group operators:
 irot       det(A)        alpha          n_x          n_y          n_z        tau_x        tau_y        tau_z
    1     1.000000     0.000000     1.000000     0.000000     0.000000     0.000000     0.000000     0.000000
    2     1.000000   120.000000     0.000000     0.000000    -1.000000     0.000000     0.000000     0.000000
    3     1.000000   120.000000     0.000000     0.000000     1.000000     0.000000     0.000000     0.000000
    4    -1.000000   180.000000     0.500000    -0.866025     0.000000     0.000000     0.000000     0.000000
    5    -1.000000   180.000000    -0.500000    -0.866025     0.000000     0.000000     0.000000     0.000000
    6    -1.000000   180.000000     1.000000     0.000000     0.000000     0.000000     0.000000     0.000000
    7    -1.000000     0.000000     1.000000     0.000000     0.000000     0.333334     0.666666     0.195076
    8     1.000000    60.000000     0.000000     0.000000    -1.000000     0.333332     0.666666     0.000000
    9    -1.000000    60.000000     0.000000     0.000000    -1.000000     0.000000     0.000000     0.195076
   10    -1.000000   120.000000     0.000000     0.000000    -1.000000     0.333334     0.666668     0.195076
   11     1.000000   180.000000     0.000000     0.000000     1.000000     0.333334     0.666666     0.000000
   12    -1.000000   180.000000     0.000000     0.000000     1.000000     0.000000     0.000000     0.195076
   13    -1.000000   120.000000     0.000000     0.000000     1.000000     0.333332     0.666666     0.195076
   14     1.000000    60.000000     0.000000     0.000000     1.000000     0.333334     0.666668     0.000000
   15    -1.000000    60.000000     0.000000     0.000000     1.000000     0.000000     0.000000     0.195076
   16     1.000000   180.000000     0.500000    -0.866025     0.000000     0.333332     0.666666     0.195076
   17     1.000000   179.999999     0.000000     1.000000     0.000000     0.000000     0.000000     0.195076
   18    -1.000000   179.999999     0.000000     1.000000     0.000000     0.333334     0.666666     0.000000
   19     1.000000   180.000000    -0.500000    -0.866025     0.000000     0.333334     0.666668     0.195076
   20     1.000000   180.000000     0.866026     0.500000     0.000000     0.000000     0.000000     0.195076
   21    -1.000000   180.000000     0.866026     0.500000     0.000000     0.333332     0.666666     0.000000
   22     1.000000   180.000000     1.000000     0.000000     0.000000     0.333334     0.666666     0.195076
   23     1.000000   180.000000     0.866026    -0.500000     0.000000     0.000000     0.000000     0.195076
   24    -1.000000   180.000000     0.866026    -0.500000     0.000000     0.333334     0.666668     0.000000
 
 Subroutine IBZKPT returns following result:
 ===========================================
 
 Found     91 irreducible k-points:
 
 Following reciprocal coordinates:
            Coordinates               Weight
  0.000000  0.000000  0.000000      1.000000
  0.033333 -0.000000  0.000000      6.000000
  0.066667 -0.000000  0.000000      6.000000
  0.100000 -0.000000  0.000000      6.000000
  0.133333 -0.000000  0.000000      6.000000
  0.166667 -0.000000  0.000000      6.000000
  0.200000 -0.000000  0.000000      6.000000
  0.233333 -0.000000  0.000000      6.000000
  0.266667  0.000000  0.000000      6.000000
  0.300000 -0.000000  0.000000      6.000000
  0.333333 -0.000000  0.000000      6.000000
  0.366667 -0.000000  0.000000      6.000000
  0.400000 -0.000000  0.000000      6.000000
  0.433333 -0.000000  0.000000      6.000000
  0.466667 -0.000000  0.000000      6.000000
  0.500000 -0.000000  0.000000      3.000000
  0.033333  0.033333  0.000000      6.000000
  0.066667  0.033333  0.000000     12.000000
  0.100000  0.033333  0.000000     12.000000
  0.133333  0.033333  0.000000     12.000000
  0.166667  0.033333  0.000000     12.000000
  0.200000  0.033333  0.000000     12.000000
  0.233333  0.033333  0.000000     12.000000
  0.266667  0.033333  0.000000     12.000000
  0.300000  0.033333  0.000000     12.000000
  0.333333  0.033333  0.000000     12.000000
  0.366667  0.033333  0.000000     12.000000
  0.400000  0.033333  0.000000     12.000000
  0.433333  0.033333  0.000000     12.000000
  0.466667  0.033333  0.000000     12.000000
  0.066667  0.066667  0.000000      6.000000
  0.100000  0.066667  0.000000     12.000000
  0.133333  0.066667  0.000000     12.000000
  0.166667  0.066667  0.000000     12.000000
  0.200000  0.066667  0.000000     12.000000
  0.233333  0.066667  0.000000     12.000000
  0.266667  0.066667  0.000000     12.000000
  0.300000  0.066667  0.000000     12.000000
  0.333333  0.066667  0.000000     12.000000
  0.366667  0.066667  0.000000     12.000000
  0.400000  0.066667  0.000000     12.000000
  0.433333  0.066667  0.000000     12.000000
  0.466667  0.066667  0.000000      6.000000
  0.100000  0.100000  0.000000      6.000000
  0.133333  0.100000  0.000000     12.000000
  0.166667  0.100000  0.000000     12.000000
  0.200000  0.100000  0.000000     12.000000
  0.233333  0.100000  0.000000     12.000000
  0.266667  0.100000  0.000000     12.000000
  0.300000  0.100000  0.000000     12.000000
  0.333333  0.100000  0.000000     12.000000
  0.366667  0.100000  0.000000     12.000000
  0.400000  0.100000  0.000000     12.000000
  0.433333  0.100000  0.000000     12.000000
  0.133333  0.133333  0.000000      6.000000
  0.166667  0.133333  0.000000     12.000000
  0.200000  0.133333  0.000000     12.000000
  0.233333  0.133333  0.000000     12.000000
  0.266667  0.133333  0.000000     12.000000
  0.300000  0.133333  0.000000     12.000000
  0.333333  0.133333  0.000000     12.000000
  0.366667  0.133333  0.000000     12.000000
  0.400000  0.133333  0.000000     12.000000
  0.433333  0.133333  0.000000      6.000000
  0.166667  0.166667  0.000000      6.000000
  0.200000  0.166667  0.000000     12.000000
  0.233333  0.166667  0.000000     12.000000
  0.266667  0.166667  0.000000     12.000000
  0.300000  0.166667  0.000000     12.000000
  0.333333  0.166667  0.000000     12.000000
  0.366667  0.166667  0.000000     12.000000
  0.400000  0.166667  0.000000     12.000000
  0.200000  0.200000  0.000000      6.000000
  0.233333  0.200000  0.000000     12.000000
  0.266667  0.200000  0.000000     12.000000
  0.300000  0.200000  0.000000     12.000000
  0.333333  0.200000  0.000000     12.000000
  0.366667  0.200000  0.000000     12.000000
  0.400000  0.200000  0.000000      6.000000
  0.233333  0.233333  0.000000      6.000000
  0.266667  0.233333  0.000000     12.000000
  0.300000  0.233333  0.000000     12.000000
  0.333333  0.233333  0.000000     12.000000
  0.366667  0.233333  0.000000     12.000000
  0.266667  0.266667  0.000000      6.000000
  0.300000  0.266667  0.000000     12.000000
  0.333333  0.266667  0.000000     12.000000
  0.366667  0.266667  0.000000      6.000000
  0.300000  0.300000  0.000000      6.000000
  0.333333  0.300000  0.000000     12.000000
  0.333333  0.333333  0.000000      2.000000
 
 Following cartesian coordinates:
            Coordinates               Weight
  0.000000  0.000000  0.000000      1.000000
  0.013510 -0.007800  0.000000      6.000000
  0.027020 -0.015600  0.000000      6.000000
  0.040530 -0.023400  0.000000      6.000000
  0.054040 -0.031200  0.000000      6.000000
  0.067550 -0.039000  0.000000      6.000000
  0.081061 -0.046800  0.000000      6.000000
  0.094571 -0.054600  0.000000      6.000000
  0.108081 -0.062400  0.000000      6.000000
  0.121591 -0.070200  0.000000      6.000000
  0.135101 -0.078001  0.000000      6.000000
  0.148611 -0.085801  0.000000      6.000000
  0.162121 -0.093601  0.000000      6.000000
  0.175631 -0.101401  0.000000      6.000000
  0.189141 -0.109201  0.000000      6.000000
  0.202651 -0.117001  0.000000      3.000000
  0.027020  0.000000  0.000000      6.000000
  0.040530 -0.007800  0.000000     12.000000
  0.054040 -0.015600  0.000000     12.000000
  0.067550 -0.023400  0.000000     12.000000
  0.081061 -0.031200  0.000000     12.000000
  0.094571 -0.039000  0.000000     12.000000
  0.108081 -0.046800  0.000000     12.000000
  0.121591 -0.054600  0.000000     12.000000
  0.135101 -0.062400  0.000000     12.000000
  0.148611 -0.070200  0.000000     12.000000
  0.162121 -0.078001  0.000000     12.000000
  0.175631 -0.085801  0.000000     12.000000
  0.189141 -0.093601  0.000000     12.000000
  0.202651 -0.101401  0.000000     12.000000
  0.054040  0.000000  0.000000      6.000000
  0.067550 -0.007800  0.000000     12.000000
  0.081061 -0.015600  0.000000     12.000000
  0.094571 -0.023400  0.000000     12.000000
  0.108081 -0.031200  0.000000     12.000000
  0.121591 -0.039000  0.000000     12.000000
  0.135101 -0.046800  0.000000     12.000000
  0.148611 -0.054600  0.000000     12.000000
  0.162121 -0.062400  0.000000     12.000000
  0.175631 -0.070200  0.000000     12.000000
  0.189141 -0.078001  0.000000     12.000000
  0.202651 -0.085801  0.000000     12.000000
  0.216162 -0.093601  0.000000      6.000000
  0.081061  0.000000  0.000000      6.000000
  0.094571 -0.007800  0.000000     12.000000
  0.108081 -0.015600  0.000000     12.000000
  0.121591 -0.023400  0.000000     12.000000
  0.135101 -0.031200  0.000000     12.000000
  0.148611 -0.039000  0.000000     12.000000
  0.162121 -0.046800  0.000000     12.000000
  0.175631 -0.054600  0.000000     12.000000
  0.189141 -0.062400  0.000000     12.000000
  0.202651 -0.070200  0.000000     12.000000
  0.216162 -0.078001  0.000000     12.000000
  0.108081  0.000000  0.000000      6.000000
  0.121591 -0.007800  0.000000     12.000000
  0.135101 -0.015600  0.000000     12.000000
  0.148611 -0.023400  0.000000     12.000000
  0.162121 -0.031200  0.000000     12.000000
  0.175631 -0.039000  0.000000     12.000000
  0.189141 -0.046800  0.000000     12.000000
  0.202651 -0.054600  0.000000     12.000000
  0.216162 -0.062400  0.000000     12.000000
  0.229672 -0.070200  0.000000      6.000000
  0.135101  0.000000  0.000000      6.000000
  0.148611 -0.007800  0.000000     12.000000
  0.162121 -0.015600  0.000000     12.000000
  0.175631 -0.023400  0.000000     12.000000
  0.189141 -0.031200  0.000000     12.000000
  0.202651 -0.039000  0.000000     12.000000
  0.216162 -0.046800  0.000000     12.000000
  0.229672 -0.054600  0.000000     12.000000
  0.162121  0.000000  0.000000      6.000000
  0.175631 -0.007800  0.000000     12.000000
  0.189141 -0.015600  0.000000     12.000000
  0.202651 -0.023400  0.000000     12.000000
  0.216162 -0.031200  0.000000     12.000000
  0.229672 -0.039000  0.000000     12.000000
  0.243182 -0.046800  0.000000      6.000000
  0.189141  0.000000  0.000000      6.000000
  0.202651 -0.007800  0.000000     12.000000
  0.216162 -0.015600  0.000000     12.000000
  0.229672 -0.023400  0.000000     12.000000
  0.243182 -0.031200  0.000000     12.000000
  0.216162  0.000000  0.000000      6.000000
  0.229672 -0.007800  0.000000     12.000000
  0.243182 -0.015600  0.000000     12.000000
  0.256692 -0.023400  0.000000      6.000000
  0.243182  0.000000  0.000000      6.000000
  0.256692 -0.007800  0.000000     12.000000
  0.270202  0.000000  0.000000      2.000000
 


--------------------------------------------------------------------------------------------------------




 Dimension of arrays:
   k-points           NKPTS =     91   k-points in BZ     NKDIM =     91   number of bands    NBANDS=     16
   number of dos      NEDOS =   5000   number of ions     NIONS =      2
   non local maximal  LDIM  =      4   non local SUM 2l+1 LMDIM =      8
   total plane-waves  NPLWV = 103680
   max r-space proj   IRMAX =      1   max aug-charges    IRDMAX=  11802
   dimension x,y,z NGX =    24 NGY =   24 NGZ =  180
   dimension x,y,z NGXF=    48 NGYF=   48 NGZF=  360
   support grid    NGXF=    48 NGYF=   48 NGZF=  360
   ions per type =               2
 NGX,Y,Z   is equivalent  to a cutoff of  16.17, 16.17, 14.96 a.u.
 NGXF,Y,Z  is equivalent  to a cutoff of  32.34, 32.34, 29.92 a.u.


 I would recommend the setting:
   dimension x,y,z NGX =    22 NGY =   22 NGZ =  179
 SYSTEM =  unknown system                          
 POSCAR =  Surf-mp-48                              

 Startparameter for this run:
   NWRITE =      2    write-flag & timer
   PREC   = accura    normal or accurate (medium, high low for compatibility)
   ISTART =      0    job   : 0-new  1-cont  2-samecut
   ICHARG =      2    charge: 1-file 2-atom 10-const
   ISPIN  =      2    spin polarized calculation?
   LNONCOLLINEAR =      F non collinear calculations
   LSORBIT =      F    spin-orbit coupling
   INIWAV =      1    electr: 0-lowe 1-rand  2-diag
   LASPH  =      F    aspherical Exc in radial PAW
   METAGGA=      F    non-selfconsistent MetaGGA calc.

 Electronic Relaxation 1
   ENCUT  =  750.0 eV  55.12 Ry    7.42 a.u.   5.51  5.51 44.66*2*pi/ulx,y,z
   ENINI  =  750.0     initial cutoff
   ENAUG  =  644.9 eV  augmentation charge cutoff
   NELM   =    500;   NELMIN=  2; NELMDL= -5     # of ELM steps 
   EDIFF  = 0.1E-06   stopping-criterion for ELM
   LREAL  =      F    real-space projection
   NLSPLINE    = F    spline interpolate recip. space projectors
   LCOMPAT=      F    compatible to vasp.4.4
   GGA_COMPAT  = T    GGA compatible to vasp.4.4-vasp.4.6
   LMAXPAW     = -100 max onsite density
   LMAXMIX     =    2 max onsite mixed and CHGCAR
   VOSKOWN=      0    Vosko Wilk Nusair interpolation
   ROPT   =    0.00000
 Ionic relaxation
   EDIFFG = -.1E-02   stopping-criterion for IOM
   NSW    =    500    number of steps for IOM
   NBLOCK =      1;   KBLOCK =    500    inner block; outer block 
   IBRION =      2    ionic relax: 0-MD 1-quasi-New 2-CG
   NFREE  =      1    steps in history (QN), initial steepest desc. (CG)
   ISIF   =      3    stress and relaxation
   IWAVPR =     11    prediction:  0-non 1-charg 2-wave 3-comb
   ISYM   =      2    0-nonsym 1-usesym 2-fastsym
   LCORR  =      T    Harris-Foulkes like correction to forces

   POTIM  = 0.5000    time-step for ionic-motion
   TEIN   =    0.0    initial temperature
   TEBEG  =    0.0;   TEEND  =   0.0 temperature during run
   SMASS  =  -3.00    Nose mass-parameter (am)
   estimated Nose-frequenzy (Omega)   =  0.10E-29 period in steps =****** mass=  -0.139E-27a.u.
   SCALEE = 1.0000    scale energy and forces
   NPACO  =    256;   APACO  = 16.0  distance and # of slots for P.C.
   PSTRESS=    0.0 pullay stress

  Mass of Ions in am
   POMASS =  12.01
  Ionic Valenz
   ZVAL   =   4.00
  Atomic Wigner-Seitz radii
   RWIGS  =  -1.00
  virtual crystal weights 
   VCA    =   1.00
   NELECT =       8.0000    total number of electrons
   NUPDOWN=      -1.0000    fix difference up-down

 DOS related values:
   EMIN   =  10.00;   EMAX   =-10.00  energy-range for DOS
   EFERMI =   0.00
   ISMEAR =     0;   SIGMA  =   0.20  broadening in eV -4-tet -1-fermi 0-gaus

 Electronic relaxation 2 (details)
   IALGO  =     38    algorithm
   LDIAG  =      T    sub-space diagonalisation (order eigenvalues)
   LSUBROT=      F    optimize rotation matrix (better conditioning)
   TURBO    =      0    0=normal 1=particle mesh
   IRESTART =      0    0=no restart 2=restart with 2 vectors
   NREBOOT  =      0    no. of reboots
   NMIN     =      0    reboot dimension
   EREF     =   0.00    reference energy to select bands
   IMIX   =      4    mixing-type and parameters
     AMIX     =   0.40;   BMIX     =  1.00
     AMIX_MAG =   1.60;   BMIX_MAG =  1.00
     AMIN     =   0.10
     WC   =   100.;   INIMIX=   1;  MIXPRE=   1;  MAXMIX= -45

 Intra band minimization:
   WEIMIN = 0.0010     energy-eigenvalue tresh-hold
   EBREAK =  0.16E-08  absolut break condition
   DEPER  =   0.30     relativ break condition  

   TIME   =   0.40     timestep for ELM

  volume/ion in A,a.u.               =      52.72       355.77
  Fermi-wavevector in a.u.,A,eV,Ry     =   0.693060  1.309694  6.535323  0.480333
  Thomas-Fermi vector in A             =   1.775168
 
 Write flags
   LWAVE  =      F    write WAVECAR
   LCHARG =      F    write CHGCAR
   LVTOT  =      F    write LOCPOT, total local potential
   LVHAR  =      T    write LOCPOT, Hartree potential only
   LELF   =      F    write electronic localiz. function (ELF)
   LORBIT =     11    0 simple, 1 ext, 2 COOP (PROOUT)


 Dipole corrections
   LMONO  =      F    monopole corrections only (constant potential shift)
   LDIPOL =      F    correct potential (dipole corrections)
   IDIPOL =      0    1-x, 2-y, 3-z, 4-all directions 
   EPSILON=  1.0000000 bulk dielectric constant

 Exchange correlation treatment:
   GGA     =    BO    GGA type
   LEXCH   =    42    internal setting for exchange type
   VOSKOWN=      0    Vosko Wilk Nusair interpolation
   LHFCALC =     F    Hartree Fock is set to
   LHFONE  =     F    Hartree Fock one center treatment
   AEXX    =    0.0000 exact exchange contribution

 vdW DFT:
   LUSE_VDW   =     T    switch on vdW DFT
   Zab_VDW    =-.8491    correlation parameter
   PARAM1     =0.1833
   PARAM2     =0.2200
   PARAM3     =0.0000

 Linear response parameters
   LEPSILON=     F    determine dielectric tensor
   LRPA    =     F    only Hartree local field effects (RPA)
   LNABLA  =     F    use nabla operator in PAW spheres
   LVEL    =     F    velocity operator in full k-point grid
   LINTERFAST=   F  fast interpolation
   KINTER  =     0    interpolate to denser k-point grid
   CSHIFT  =0.1000    complex shift for real part using Kramers Kronig
   OMEGAMAX=  -1.0    maximum frequency
   DEG_THRESHOLD= 0.2000000E-02 threshold for treating states as degnerate
   RTIME   =    0.100 relaxation time in fs

 Orbital magnetization related:
   ORBITALMAG=     F  switch on orbital magnetization
   LCHIMAG   =     F  perturbation theory with respect to B field
   DQ        =  0.001000  dq finite difference perturbation B field



--------------------------------------------------------------------------------------------------------


 conjugate gradient relaxation of ions
 charge density and potential will be updated during run
 spin polarized calculation
 Variant of blocked Davidson
 Davidson routine will perform the subspace rotation
 perform sub-space diagonalisation
    after iterative eigenvector-optimisation
 modified Broyden-mixing scheme, WC =      100.0
 initial mixing is a Kerker type mixing with AMIX =  0.4000 and BMIX =      1.0000
 Hartree-type preconditioning will be used
 using additional bands           12
 reciprocal scheme for non local part
 use partial core corrections
 calculate Harris-corrections to forces 
   (improved forces if not selfconsistent)
 use gradient corrections 
 use of overlap-Matrix (Vanderbilt PP)
 Gauss-broadening in eV      SIGMA  =   0.20


--------------------------------------------------------------------------------------------------------


  energy-cutoff  :      750.00
  volume of cell :      105.44
      direct lattice vectors                 reciprocal lattice vectors
     1.233645000 -2.136737000  0.000000000     0.405302984 -0.234001658  0.000000000
     1.233645000  2.136737000  0.000000000     0.405302984  0.234001658  0.000000000
     0.000000000  0.000000000 20.000000000     0.000000000  0.000000000  0.050000000

  length of vectors
     2.467291023  2.467291023 20.000000000     0.468003509  0.468003509  0.050000000


 
 k-points in units of 2pi/SCALE and weight: Automatic kpoint scheme                 
   0.00000000  0.00000000  0.00000000       0.001
   0.01351010 -0.00780006  0.00000000       0.007
   0.02702020 -0.01560011  0.00000000       0.007
   0.04053030 -0.02340017  0.00000000       0.007
   0.05404040 -0.03120022  0.00000000       0.007
   0.06755050 -0.03900028  0.00000000       0.007
   0.08106060 -0.04680033  0.00000000       0.007
   0.09457070 -0.05460039  0.00000000       0.007
   0.10808080 -0.06240044  0.00000000       0.007
   0.12159090 -0.07020050  0.00000000       0.007
   0.13510099 -0.07800055  0.00000000       0.007
   0.14861109 -0.08580061  0.00000000       0.007
   0.16212119 -0.09360066  0.00000000       0.007
   0.17563129 -0.10140072  0.00000000       0.007
   0.18914139 -0.10920077  0.00000000       0.007
   0.20265149 -0.11700083  0.00000000       0.003
   0.02702020  0.00000000  0.00000000       0.007
   0.04053030 -0.00780006  0.00000000       0.013
   0.05404040 -0.01560011  0.00000000       0.013
   0.06755050 -0.02340017  0.00000000       0.013
   0.08106060 -0.03120022  0.00000000       0.013
   0.09457070 -0.03900028  0.00000000       0.013
   0.10808080 -0.04680033  0.00000000       0.013
   0.12159090 -0.05460039  0.00000000       0.013
   0.13510099 -0.06240044  0.00000000       0.013
   0.14861109 -0.07020050  0.00000000       0.013
   0.16212119 -0.07800055  0.00000000       0.013
   0.17563129 -0.08580061  0.00000000       0.013
   0.18914139 -0.09360066  0.00000000       0.013
   0.20265149 -0.10140072  0.00000000       0.013
   0.05404040  0.00000000  0.00000000       0.007
   0.06755050 -0.00780006  0.00000000       0.013
   0.08106060 -0.01560011  0.00000000       0.013
   0.09457070 -0.02340017  0.00000000       0.013
   0.10808080 -0.03120022  0.00000000       0.013
   0.12159090 -0.03900028  0.00000000       0.013
   0.13510099 -0.04680033  0.00000000       0.013
   0.14861109 -0.05460039  0.00000000       0.013
   0.16212119 -0.06240044  0.00000000       0.013
   0.17563129 -0.07020050  0.00000000       0.013
   0.18914139 -0.07800055  0.00000000       0.013
   0.20265149 -0.08580061  0.00000000       0.013
   0.21616159 -0.09360066  0.00000000       0.007
   0.08106060  0.00000000  0.00000000       0.007
   0.09457070 -0.00780006  0.00000000       0.013
   0.10808080 -0.01560011  0.00000000       0.013
   0.12159090 -0.02340017  0.00000000       0.013
   0.13510099 -0.03120022  0.00000000       0.013
   0.14861109 -0.03900028  0.00000000       0.013
   0.16212119 -0.04680033  0.00000000       0.013
   0.17563129 -0.05460039  0.00000000       0.013
   0.18914139 -0.06240044  0.00000000       0.013
   0.20265149 -0.07020050  0.00000000       0.013
   0.21616159 -0.07800055  0.00000000       0.013
   0.10808080  0.00000000  0.00000000       0.007
   0.12159090 -0.00780006  0.00000000       0.013
   0.13510099 -0.01560011  0.00000000       0.013
   0.14861109 -0.02340017  0.00000000       0.013
   0.16212119 -0.03120022  0.00000000       0.013
   0.17563129 -0.03900028  0.00000000       0.013
   0.18914139 -0.04680033  0.00000000       0.013
   0.20265149 -0.05460039  0.00000000       0.013
   0.21616159 -0.06240044  0.00000000       0.013
   0.22967169 -0.07020050  0.00000000       0.007
   0.13510099  0.00000000  0.00000000       0.007
   0.14861109 -0.00780006  0.00000000       0.013
   0.16212119 -0.01560011  0.00000000       0.013
   0.17563129 -0.02340017  0.00000000       0.013
   0.18914139 -0.03120022  0.00000000       0.013
   0.20265149 -0.03900028  0.00000000       0.013
   0.21616159 -0.04680033  0.00000000       0.013
   0.22967169 -0.05460039  0.00000000       0.013
   0.16212119  0.00000000  0.00000000       0.007
   0.17563129 -0.00780006  0.00000000       0.013
   0.18914139 -0.01560011  0.00000000       0.013
   0.20265149 -0.02340017  0.00000000       0.013
   0.21616159 -0.03120022  0.00000000       0.013
   0.22967169 -0.03900028  0.00000000       0.013
   0.24318179 -0.04680033  0.00000000       0.007
   0.18914139  0.00000000  0.00000000       0.007
   0.20265149 -0.00780006  0.00000000       0.013
   0.21616159 -0.01560011  0.00000000       0.013
   0.22967169 -0.02340017  0.00000000       0.013
   0.24318179 -0.03120022  0.00000000       0.013
   0.21616159  0.00000000  0.00000000       0.007
   0.22967169 -0.00780006  0.00000000       0.013
   0.24318179 -0.01560011  0.00000000       0.013
   0.25669189 -0.02340017  0.00000000       0.007
   0.24318179  0.00000000  0.00000000       0.007
   0.25669189 -0.00780006  0.00000000       0.013
   0.27020199  0.00000000  0.00000000       0.002
 
 k-points in reciprocal lattice and weights: Automatic kpoint scheme                 
   0.00000000  0.00000000  0.00000000       0.001
   0.03333333 -0.00000000  0.00000000       0.007
   0.06666667 -0.00000000  0.00000000       0.007
   0.10000000 -0.00000000  0.00000000       0.007
   0.13333333 -0.00000000  0.00000000       0.007
   0.16666667 -0.00000000  0.00000000       0.007
   0.20000000 -0.00000000  0.00000000       0.007
   0.23333333 -0.00000000  0.00000000       0.007
   0.26666667  0.00000000  0.00000000       0.007
   0.30000000 -0.00000000  0.00000000       0.007
   0.33333333 -0.00000000  0.00000000       0.007
   0.36666667 -0.00000000  0.00000000       0.007
   0.40000000 -0.00000000  0.00000000       0.007
   0.43333333 -0.00000000  0.00000000       0.007
   0.46666667 -0.00000000  0.00000000       0.007
   0.50000000 -0.00000000  0.00000000       0.003
   0.03333333  0.03333333  0.00000000       0.007
   0.06666667  0.03333333  0.00000000       0.013
   0.10000000  0.03333333  0.00000000       0.013
   0.13333333  0.03333333  0.00000000       0.013
   0.16666667  0.03333333  0.00000000       0.013
   0.20000000  0.03333333  0.00000000       0.013
   0.23333333  0.03333333  0.00000000       0.013
   0.26666667  0.03333333  0.00000000       0.013
   0.30000000  0.03333333  0.00000000       0.013
   0.33333333  0.03333333  0.00000000       0.013
   0.36666667  0.03333333  0.00000000       0.013
   0.40000000  0.03333333  0.00000000       0.013
   0.43333333  0.03333333  0.00000000       0.013
   0.46666667  0.03333333  0.00000000       0.013
   0.06666667  0.06666667  0.00000000       0.007
   0.10000000  0.06666667  0.00000000       0.013
   0.13333333  0.06666667  0.00000000       0.013
   0.16666667  0.06666667  0.00000000       0.013
   0.20000000  0.06666667  0.00000000       0.013
   0.23333333  0.06666667  0.00000000       0.013
   0.26666667  0.06666667  0.00000000       0.013
   0.30000000  0.06666667  0.00000000       0.013
   0.33333333  0.06666667  0.00000000       0.013
   0.36666667  0.06666667  0.00000000       0.013
   0.40000000  0.06666667  0.00000000       0.013
   0.43333333  0.06666667  0.00000000       0.013
   0.46666667  0.06666667  0.00000000       0.007
   0.10000000  0.10000000  0.00000000       0.007
   0.13333333  0.10000000  0.00000000       0.013
   0.16666667  0.10000000  0.00000000       0.013
   0.20000000  0.10000000  0.00000000       0.013
   0.23333333  0.10000000  0.00000000       0.013
   0.26666667  0.10000000  0.00000000       0.013
   0.30000000  0.10000000  0.00000000       0.013
   0.33333333  0.10000000  0.00000000       0.013
   0.36666667  0.10000000  0.00000000       0.013
   0.40000000  0.10000000  0.00000000       0.013
   0.43333333  0.10000000  0.00000000       0.013
   0.13333333  0.13333333  0.00000000       0.007
   0.16666667  0.13333333  0.00000000       0.013
   0.20000000  0.13333333  0.00000000       0.013
   0.23333333  0.13333333  0.00000000       0.013
   0.26666667  0.13333333  0.00000000       0.013
   0.30000000  0.13333333  0.00000000       0.013
   0.33333333  0.13333333  0.00000000       0.013
   0.36666667  0.13333333  0.00000000       0.013
   0.40000000  0.13333333  0.00000000       0.013
   0.43333333  0.13333333  0.00000000       0.007
   0.16666667  0.16666667  0.00000000       0.007
   0.20000000  0.16666667  0.00000000       0.013
   0.23333333  0.16666667  0.00000000       0.013
   0.26666667  0.16666667  0.00000000       0.013
   0.30000000  0.16666667  0.00000000       0.013
   0.33333333  0.16666667  0.00000000       0.013
   0.36666667  0.16666667  0.00000000       0.013
   0.40000000  0.16666667  0.00000000       0.013
   0.20000000  0.20000000  0.00000000       0.007
   0.23333333  0.20000000  0.00000000       0.013
   0.26666667  0.20000000  0.00000000       0.013
   0.30000000  0.20000000  0.00000000       0.013
   0.33333333  0.20000000  0.00000000       0.013
   0.36666667  0.20000000  0.00000000       0.013
   0.40000000  0.20000000  0.00000000       0.007
   0.23333333  0.23333333  0.00000000       0.007
   0.26666667  0.23333333  0.00000000       0.013
   0.30000000  0.23333333  0.00000000       0.013
   0.33333333  0.23333333  0.00000000       0.013
   0.36666667  0.23333333  0.00000000       0.013
   0.26666667  0.26666667  0.00000000       0.007
   0.30000000  0.26666667  0.00000000       0.013
   0.33333333  0.26666667  0.00000000       0.013
   0.36666667  0.26666667  0.00000000       0.007
   0.30000000  0.30000000  0.00000000       0.007
   0.33333333  0.30000000  0.00000000       0.013
   0.33333333  0.33333333  0.00000000       0.002
 
 position of ions in fractional coordinates (direct lattice) 
   0.33333400  0.66666600  0.09753800
   0.00000000  0.00000000  0.09753800
 
 position of ions in cartesian coordinates  (Angst):
   1.23364500  0.71224282  1.95076000
   0.00000000  0.00000000  1.95076000
 


--------------------------------------------------------------------------------------------------------


 k-point  1 :   0.0000 0.0000 0.0000  plane waves:    5021
 k-point  2 :   0.0333-0.0000 0.0000  plane waves:    4999
 k-point  3 :   0.0667-0.0000 0.0000  plane waves:    4991
 k-point  4 :   0.1000-0.0000 0.0000  plane waves:    4991
 k-point  5 :   0.1333-0.0000 0.0000  plane waves:    4981
 k-point  6 :   0.1667-0.0000 0.0000  plane waves:    4979
 k-point  7 :   0.2000-0.0000 0.0000  plane waves:    4947
 k-point  8 :   0.2333-0.0000 0.0000  plane waves:    4930
 k-point  9 :   0.2667 0.0000 0.0000  plane waves:    4928
 k-point 10 :   0.3000-0.0000 0.0000  plane waves:    4926
 k-point 11 :   0.3333-0.0000 0.0000  plane waves:    4918
 k-point 12 :   0.3667-0.0000 0.0000  plane waves:    4898
 k-point 13 :   0.4000-0.0000 0.0000  plane waves:    4884
 k-point 14 :   0.4333-0.0000 0.0000  plane waves:    4872
 k-point 15 :   0.4667-0.0000 0.0000  plane waves:    4862
 k-point 16 :   0.5000-0.0000 0.0000  plane waves:    4836
 k-point 17 :   0.0333 0.0333 0.0000  plane waves:    4995
 k-point 18 :   0.0667 0.0333 0.0000  plane waves:    4997
 k-point 19 :   0.1000 0.0333 0.0000  plane waves:    4987
 k-point 20 :   0.1333 0.0333 0.0000  plane waves:    4981
 k-point 21 :   0.1667 0.0333 0.0000  plane waves:    4973
 k-point 22 :   0.2000 0.0333 0.0000  plane waves:    4943
 k-point 23 :   0.2333 0.0333 0.0000  plane waves:    4934
 k-point 24 :   0.2667 0.0333 0.0000  plane waves:    4925
 k-point 25 :   0.3000 0.0333 0.0000  plane waves:    4920
 k-point 26 :   0.3333 0.0333 0.0000  plane waves:    4914
 k-point 27 :   0.3667 0.0333 0.0000  plane waves:    4904
 k-point 28 :   0.4000 0.0333 0.0000  plane waves:    4892
 k-point 29 :   0.4333 0.0333 0.0000  plane waves:    4859
 k-point 30 :   0.4667 0.0333 0.0000  plane waves:    4854
 k-point 31 :   0.0667 0.0667 0.0000  plane waves:    4991
 k-point 32 :   0.1000 0.0667 0.0000  plane waves:    4977
 k-point 33 :   0.1333 0.0667 0.0000  plane waves:    4967
 k-point 34 :   0.1667 0.0667 0.0000  plane waves:    4952
 k-point 35 :   0.2000 0.0667 0.0000  plane waves:    4933
 k-point 36 :   0.2333 0.0667 0.0000  plane waves:    4931
 k-point 37 :   0.2667 0.0667 0.0000  plane waves:    4923
 k-point 38 :   0.3000 0.0667 0.0000  plane waves:    4909
 k-point 39 :   0.3333 0.0667 0.0000  plane waves:    4890
 k-point 40 :   0.3667 0.0667 0.0000  plane waves:    4904
 k-point 41 :   0.4000 0.0667 0.0000  plane waves:    4883
 k-point 42 :   0.4333 0.0667 0.0000  plane waves:    4853
 k-point 43 :   0.4667 0.0667 0.0000  plane waves:    4854
 k-point 44 :   0.1000 0.1000 0.0000  plane waves:    4961
 k-point 45 :   0.1333 0.1000 0.0000  plane waves:    4936
 k-point 46 :   0.1667 0.1000 0.0000  plane waves:    4934
 k-point 47 :   0.2000 0.1000 0.0000  plane waves:    4933
 k-point 48 :   0.2333 0.1000 0.0000  plane waves:    4933
 k-point 49 :   0.2667 0.1000 0.0000  plane waves:    4922
 k-point 50 :   0.3000 0.1000 0.0000  plane waves:    4907
 k-point 51 :   0.3333 0.1000 0.0000  plane waves:    4900
 k-point 52 :   0.3667 0.1000 0.0000  plane waves:    4883
 k-point 53 :   0.4000 0.1000 0.0000  plane waves:    4873
 k-point 54 :   0.4333 0.1000 0.0000  plane waves:    4868
 k-point 55 :   0.1333 0.1333 0.0000  plane waves:    4935
 k-point 56 :   0.1667 0.1333 0.0000  plane waves:    4922
 k-point 57 :   0.2000 0.1333 0.0000  plane waves:    4927
 k-point 58 :   0.2333 0.1333 0.0000  plane waves:    4929
 k-point 59 :   0.2667 0.1333 0.0000  plane waves:    4919
 k-point 60 :   0.3000 0.1333 0.0000  plane waves:    4919
 k-point 61 :   0.3333 0.1333 0.0000  plane waves:    4897
 k-point 62 :   0.3667 0.1333 0.0000  plane waves:    4883
 k-point 63 :   0.4000 0.1333 0.0000  plane waves:    4885
 k-point 64 :   0.4333 0.1333 0.0000  plane waves:    4874
 k-point 65 :   0.1667 0.1667 0.0000  plane waves:    4927
 k-point 66 :   0.2000 0.1667 0.0000  plane waves:    4929
 k-point 67 :   0.2333 0.1667 0.0000  plane waves:    4927
 k-point 68 :   0.2667 0.1667 0.0000  plane waves:    4917
 k-point 69 :   0.3000 0.1667 0.0000  plane waves:    4907
 k-point 70 :   0.3333 0.1667 0.0000  plane waves:    4890
 k-point 71 :   0.3667 0.1667 0.0000  plane waves:    4895
 k-point 72 :   0.4000 0.1667 0.0000  plane waves:    4889
 k-point 73 :   0.2000 0.2000 0.0000  plane waves:    4933
 k-point 74 :   0.2333 0.2000 0.0000  plane waves:    4915
 k-point 75 :   0.2667 0.2000 0.0000  plane waves:    4911
 k-point 76 :   0.3000 0.2000 0.0000  plane waves:    4902
 k-point 77 :   0.3333 0.2000 0.0000  plane waves:    4898
 k-point 78 :   0.3667 0.2000 0.0000  plane waves:    4883
 k-point 79 :   0.4000 0.2000 0.0000  plane waves:    4902
 k-point 80 :   0.2333 0.2333 0.0000  plane waves:    4909
 k-point 81 :   0.2667 0.2333 0.0000  plane waves:    4906
 k-point 82 :   0.3000 0.2333 0.0000  plane waves:    4910
 k-point 83 :   0.3333 0.2333 0.0000  plane waves:    4914
 k-point 84 :   0.3667 0.2333 0.0000  plane waves:    4904
 k-point 85 :   0.2667 0.2667 0.0000  plane waves:    4918
 k-point 86 :   0.3000 0.2667 0.0000  plane waves:    4902
 k-point 87 :   0.3333 0.2667 0.0000  plane waves:    4906
 k-point 88 :   0.3667 0.2667 0.0000  plane waves:    4914
 k-point 89 :   0.3000 0.3000 0.0000  plane waves:    4904
 k-point 90 :   0.3333 0.3000 0.0000  plane waves:    4936
 k-point 91 :   0.3333 0.3333 0.0000  plane waves:    4938

 maximum and minimum number of plane-waves per node :      1272     1192

 maximum number of plane-waves:      5021
 maximum index in each direction: 
   IXMAX=    5   IYMAX=    5   IZMAX=   44
   IXMIN=   -6   IYMIN=   -5   IZMIN=  -44

 NGX is ok and might be reduce to  24
 NGY is ok and might be reduce to  22
 NGZ is ok and might be reduce to 178

 parallel 3D FFT for wavefunctions:
    minimum data exchange during FFTs selected (reduces bandwidth)
 parallel 3D FFT for charge:
    minimum data exchange during FFTs selected (reduces bandwidth)


 total amount of memory used by VASP on root node    50965. kBytes
========================================================================

   base      :      30000. kBytes
   nonl-proj :       7261. kBytes
   fftplans  :       1853. kBytes
   grid      :       4577. kBytes
   one-center:          6. kBytes
   wavefun   :       7268. kBytes
 
     INWAV:  cpu time    0.0000: real time    0.0000
 Broyden mixing: mesh for mixing (old mesh)
   NGX = 11   NGY = 11   NGZ = 89
  (NGX  = 48   NGY  = 48   NGZ  =360)
  gives a total of  10769 points

 initial charge density was supplied:
 charge density of overlapping atoms calculated
 number of electron       8.0000000 magnetization       2.0000000
 keeping initial charge density in first step


--------------------------------------------------------------------------------------------------------


 Maximum index for augmentation-charges          539 (set IRDMAX)


--------------------------------------------------------------------------------------------------------


 First call to EWALD:  gamma=   0.375
 Maximum number of real-space cells 5x 5x 1
 Maximum number of reciprocal cells 2x 2x10

 FEWALD executed in parallel
    FEWALD:  cpu time    0.0030: real time    0.0030


----------------------------------------- Iteration    1(   1)  ---------------------------------------


vdW kernel read from vdw_kernel.bindat
  0.0000  0.2424  0.5071  0.7962  1.1119  1.4567  1.8333  2.2446  2.6937  3.1842
  3.7199  4.3049  4.9438  5.6415  6.4036  7.2358  8.1446  9.1372 10.2212 11.4050
 12.6979 14.1099 15.6519 17.3360 19.1751 21.1837 23.3773 25.7729 28.3892 31.2465
 34.3669 37.7748 41.4965 45.5611 50.0000
 
    POTLOK:  cpu time    2.6717: real time    2.6742
    SETDIJ:  cpu time    0.0081: real time    0.0081
     EDDAV:  cpu time   13.4492: real time   13.4537
       DOS:  cpu time    0.0120: real time    0.0120
    --------------------------------------------
      LOOP:  cpu time   16.1449: real time   16.2546

 eigenvalue-minimisations  :  5824
 total energy-change (2. order) : 0.5717748E+02  (-0.3565277E+03)
 number of electron       8.0000000 magnetization       2.0000000
 augmentation part        8.0000000 magnetization       2.0000000

 Free energy of the ion-electron system (eV)
  ---------------------------------------------------
  alpha Z        PSCENC =         3.11636941
  Ewald energy   TEWEN  =      1293.13553554
  -Hartree energ DENC   =     -1505.84157649
  -exchange      EXHF   =         0.00000000
  -V(xc)+E(xc)   XCENC  =        26.61114394
  PAW double counting   =       234.13396038     -235.95409777
  entropy T*S    EENTRO =        -0.02066847
  eigenvalues    EBANDS =       -55.65594444
  atomic energy  EATOM  =       297.65276153
  Solvation  Ediel_sol  =         0.00000000
  ---------------------------------------------------
  free energy    TOTEN  =        57.17748364 eV

  energy without entropy =       57.19815212  energy(sigma->0) =       57.18781788


--------------------------------------------------------------------------------------------------------




----------------------------------------- Iteration    1(   2)  ---------------------------------------


     EDDAV:  cpu time   17.7817: real time   17.7894
       DOS:  cpu time    0.0159: real time    0.0159
    --------------------------------------------
      LOOP:  cpu time   17.8007: real time   17.8408

 eigenvalue-minimisations  :  8272
 total energy-change (2. order) :-0.6868707E+02  (-0.5856913E+02)
 number of electron       8.0000000 magnetization       2.0000000
 augmentation part        8.0000000 magnetization       2.0000000

 Free energy of the ion-electron system (eV)
  ---------------------------------------------------
  alpha Z        PSCENC =         3.11636941
  Ewald energy   TEWEN  =      1293.13553554
  -Hartree energ DENC   =     -1505.84157649
  -exchange      EXHF   =         0.00000000
  -V(xc)+E(xc)   XCENC  =        26.61114394
  PAW double counting   =       234.13396038     -235.95409777
  entropy T*S    EENTRO =        -0.00156945
  eigenvalues    EBANDS =      -124.36211456
  atomic energy  EATOM  =       297.65276153
  Solvation  Ediel_sol  =         0.00000000
  ---------------------------------------------------
  free energy    TOTEN  =       -11.50958745 eV

  energy without entropy =      -11.50801801  energy(sigma->0) =      -11.50880273


--------------------------------------------------------------------------------------------------------




----------------------------------------- Iteration    1(   3)  ---------------------------------------


     EDDAV:  cpu time   17.2998: real time   17.3019
       DOS:  cpu time    0.0162: real time    0.0162
    --------------------------------------------
      LOOP:  cpu time   17.3178: real time   17.3505

 eigenvalue-minimisations  :  7992
 total energy-change (2. order) :-0.5210991E+01  (-0.5166958E+01)
 number of electron       8.0000000 magnetization       2.0000000
 augmentation part        8.0000000 magnetization       2.0000000

 Free energy of the ion-electron system (eV)
  ---------------------------------------------------
  alpha Z        PSCENC =         3.11636941
  Ewald energy   TEWEN  =      1293.13553554
  -Hartree energ DENC   =     -1505.84157649
  -exchange      EXHF   =         0.00000000
  -V(xc)+E(xc)   XCENC  =        26.61114394
  PAW double counting   =       234.13396038     -235.95409777
  entropy T*S    EENTRO =        -0.00164616
  eigenvalues    EBANDS =      -129.57302908
  atomic energy  EATOM  =       297.65276153
  Solvation  Ediel_sol  =         0.00000000
  ---------------------------------------------------
  free energy    TOTEN  =       -16.72057869 eV

  energy without entropy =      -16.71893252  energy(sigma->0) =      -16.71975560


--------------------------------------------------------------------------------------------------------




----------------------------------------- Iteration    1(   4)  ---------------------------------------


     EDDAV:  cpu time   16.6727: real time   16.6773
       DOS:  cpu time    0.0162: real time    0.0162
    --------------------------------------------
      LOOP:  cpu time   16.6910: real time   16.7636

 eigenvalue-minimisations  :  7656
 total energy-change (2. order) :-0.6017492E-01  (-0.6015617E-01)
 number of electron       8.0000000 magnetization       2.0000000
 augmentation part        8.0000000 magnetization       2.0000000

 Free energy of the ion-electron system (eV)
  ---------------------------------------------------
  alpha Z        PSCENC =         3.11636941
  Ewald energy   TEWEN  =      1293.13553554
  -Hartree energ DENC   =     -1505.84157649
  -exchange      EXHF   =         0.00000000
  -V(xc)+E(xc)   XCENC  =        26.61114394
  PAW double counting   =       234.13396038     -235.95409777
  entropy T*S    EENTRO =        -0.00165271
  eigenvalues    EBANDS =      -129.63319745
  atomic energy  EATOM  =       297.65276153
  Solvation  Ediel_sol  =         0.00000000
  ---------------------------------------------------
  free energy    TOTEN  =       -16.78075360 eV

  energy without entropy =      -16.77910089  energy(sigma->0) =      -16.77992725


--------------------------------------------------------------------------------------------------------




----------------------------------------- Iteration    1(   5)  ---------------------------------------


     EDDAV:  cpu time   16.4123: real time   16.4155
       DOS:  cpu time    0.0163: real time    0.0163
    CHARGE:  cpu time    0.1799: real time    0.1799
    MIXING:  cpu time    0.0027: real time    0.0027
    --------------------------------------------
      LOOP:  cpu time   16.6134: real time   16.6665

 eigenvalue-minimisations  :  7528
 total energy-change (2. order) :-0.6087172E-03  (-0.6086365E-03)
 number of electron       7.9999999 magnetization       1.7180745
 augmentation part        0.2230533 magnetization       1.6842606

 Broyden mixing:
  rms(total) = 0.10056E+01    rms(broyden)= 0.10056E+01
  rms(prec ) = 0.10342E+01
  weight for this iteration     100.00

 Free energy of the ion-electron system (eV)
  ---------------------------------------------------
  alpha Z        PSCENC =         3.11636941
  Ewald energy   TEWEN  =      1293.13553554
  -Hartree energ DENC   =     -1505.84157649
  -exchange      EXHF   =         0.00000000
  -V(xc)+E(xc)   XCENC  =        26.61114394
  PAW double counting   =       234.13396038     -235.95409777
  entropy T*S    EENTRO =        -0.00165273
  eigenvalues    EBANDS =      -129.63380615
  atomic energy  EATOM  =       297.65276153
  Solvation  Ediel_sol  =         0.00000000
  ---------------------------------------------------
  free energy    TOTEN  =       -16.78136232 eV

  energy without entropy =      -16.77970959  energy(sigma->0) =      -16.78053596


--------------------------------------------------------------------------------------------------------




----------------------------------------- Iteration    1(   6)  ---------------------------------------


    POTLOK:  cpu time    2.0661: real time    2.0667
    SETDIJ:  cpu time    0.0080: real time    0.0080
     EDDAV:  cpu time   16.1866: real time   16.1973
       DOS:  cpu time    0.0173: real time    0.0173
    CHARGE:  cpu time    0.1794: real time    0.1795
    MIXING:  cpu time    0.0022: real time    0.0022
    --------------------------------------------
      LOOP:  cpu time   18.4621: real time   18.5027

 eigenvalue-minimisations  :  7392
 total energy-change (2. order) : 0.1196225E+01  (-0.1057265E+00)
 number of electron       7.9999999 magnetization       1.3845006
 augmentation part        0.2145531 magnetization       1.3708746

 Broyden mixing:
  rms(total) = 0.57502E+00    rms(broyden)= 0.57502E+00
  rms(prec ) = 0.59073E+00
  weight for this iteration     100.00

 eigenvalues of (default mixing * dielectric matrix)
  average eigenvalue GAMMA=   1.0338
  1.0338

 Free energy of the ion-electron system (eV)
  ---------------------------------------------------
  alpha Z        PSCENC =         3.11636941
  Ewald energy   TEWEN  =      1293.13553554
  -Hartree energ DENC   =     -1517.03476081
  -exchange      EXHF   =         0.00000000
  -V(xc)+E(xc)   XCENC  =        27.41173477
  PAW double counting   =       491.71210093     -493.51837534
  entropy T*S    EENTRO =        -0.00110892
  eigenvalues    EBANDS =      -118.05939453
  atomic energy  EATOM  =       297.65276153
  Solvation  Ediel_sol  =         0.00000000
  ---------------------------------------------------
  free energy    TOTEN  =       -15.58513742 eV

  energy without entropy =      -15.58402850  energy(sigma->0) =      -15.58458296


--------------------------------------------------------------------------------------------------------




----------------------------------------- Iteration    1(   7)  ---------------------------------------


    POTLOK:  cpu time    2.0681: real time    2.0682
    SETDIJ:  cpu time    0.0078: real time    0.0078
     EDDAV:  cpu time   17.3697: real time   17.3710
       DOS:  cpu time    0.0180: real time    0.0180
    CHARGE:  cpu time    0.1789: real time    0.1790
    MIXING:  cpu time    0.0021: real time    0.0021
    --------------------------------------------
      LOOP:  cpu time   19.6473: real time   19.6805

 eigenvalue-minimisations  :  7992
 total energy-change (2. order) :-0.2656506E-01  (-0.6834803E-01)
 number of electron       7.9999999 magnetization       1.0088053
 augmentation part        0.2060680 magnetization       1.0022519

 Broyden mixing:
  rms(total) = 0.32963E+00    rms(broyden)= 0.32963E+00
  rms(prec ) = 0.33391E+00
  weight for this iteration     100.00

 eigenvalues of (default mixing * dielectric matrix)
  average eigenvalue GAMMA=   1.4379
  0.8323  2.0435

 Free energy of the ion-electron system (eV)
  ---------------------------------------------------
  alpha Z        PSCENC =         3.11636941
  Ewald energy   TEWEN  =      1293.13553554
  -Hartree energ DENC   =     -1526.64107235
  -exchange      EXHF   =         0.00000000
  -V(xc)+E(xc)   XCENC  =        27.55080517
  PAW double counting   =       788.95403732     -790.70361617
  entropy T*S    EENTRO =        -0.00031325
  eigenvalues    EBANDS =      -108.67620968
  atomic energy  EATOM  =       297.65276153
  Solvation  Ediel_sol  =         0.00000000
  ---------------------------------------------------
  free energy    TOTEN  =       -15.61170248 eV

  energy without entropy =      -15.61138923  energy(sigma->0) =      -15.61154585


--------------------------------------------------------------------------------------------------------




----------------------------------------- Iteration    1(   8)  ---------------------------------------


    POTLOK:  cpu time    2.0684: real time    2.0689
    SETDIJ:  cpu time    0.0077: real time    0.0077
     EDDAV:  cpu time   16.9332: real time   16.9409
       DOS:  cpu time    0.0188: real time    0.0188
    CHARGE:  cpu time    0.1779: real time    0.1779
    MIXING:  cpu time    0.0021: real time    0.0021
    --------------------------------------------
      LOOP:  cpu time   19.2109: real time   19.2442

 eigenvalue-minimisations  :  7800
 total energy-change (2. order) :-0.3074929E-02  (-0.2177512E-01)
 number of electron       7.9999999 magnetization       0.7472468
 augmentation part        0.2005551 magnetization       0.7416882

 Broyden mixing:
  rms(total) = 0.18047E+00    rms(broyden)= 0.18047E+00
  rms(prec ) = 0.18190E+00
  weight for this iteration     100.00

 eigenvalues of (default mixing * dielectric matrix)
  average eigenvalue GAMMA=   1.4495
  2.4678  1.0938  0.7869

 Free energy of the ion-electron system (eV)
  ---------------------------------------------------
  alpha Z        PSCENC =         3.11636941
  Ewald energy   TEWEN  =      1293.13553554
  -Hartree energ DENC   =     -1533.78270382
  -exchange      EXHF   =         0.00000000
  -V(xc)+E(xc)   XCENC  =        27.69528844
  PAW double counting   =      1068.13248965    -1069.78881859
  entropy T*S    EENTRO =        -0.00028803
  eigenvalues    EBANDS =      -101.77541154
  atomic energy  EATOM  =       297.65276153
  Solvation  Ediel_sol  =         0.00000000
  ---------------------------------------------------
  free energy    TOTEN  =       -15.61477741 eV

  energy without entropy =      -15.61448938  energy(sigma->0) =      -15.61463339


--------------------------------------------------------------------------------------------------------




----------------------------------------- Iteration    1(   9)  ---------------------------------------


    POTLOK:  cpu time    2.0694: real time    2.0696
    SETDIJ:  cpu time    0.0079: real time    0.0079
     EDDAV:  cpu time   17.3223: real time   17.3239
       DOS:  cpu time    0.0190: real time    0.0191
    CHARGE:  cpu time    0.1636: real time    0.1636
    MIXING:  cpu time    0.0022: real time    0.0022
    --------------------------------------------
      LOOP:  cpu time   19.5869: real time   19.6230

 eigenvalue-minimisations  :  6992
 total energy-change (2. order) :-0.8933500E-01  (-0.1222203E-02)
 number of electron       7.9999999 magnetization       0.4678568
 augmentation part        0.2000474 magnetization       0.4638309

 Broyden mixing:
  rms(total) = 0.12847E+00    rms(broyden)= 0.12847E+00
  rms(prec ) = 0.12941E+00
  weight for this iteration     100.00

 eigenvalues of (default mixing * dielectric matrix)
  average eigenvalue GAMMA=   1.4880
  2.6707  1.6312  0.8926  0.7576

 Free energy of the ion-electron system (eV)
  ---------------------------------------------------
  alpha Z        PSCENC =         3.11636941
  Ewald energy   TEWEN  =      1293.13553554
  -Hartree energ DENC   =     -1535.28353718
  -exchange      EXHF   =         0.00000000
  -V(xc)+E(xc)   XCENC  =        27.60534685
  PAW double counting   =      1129.15638776    -1130.74776198
  entropy T*S    EENTRO =        -0.00038639
  eigenvalues    EBANDS =      -100.33882796
  atomic energy  EATOM  =       297.65276153
  Solvation  Ediel_sol  =         0.00000000
  ---------------------------------------------------
  free energy    TOTEN  =       -15.70411241 eV

  energy without entropy =      -15.70372603  energy(sigma->0) =      -15.70391922


--------------------------------------------------------------------------------------------------------




----------------------------------------- Iteration    1(  10)  ---------------------------------------


    POTLOK:  cpu time    2.0675: real time    2.0678
    SETDIJ:  cpu time    0.0079: real time    0.0079
     EDDAV:  cpu time   14.8936: real time   14.8980
       DOS:  cpu time    0.0191: real time    0.0191
    CHARGE:  cpu time    0.1768: real time    0.1768
    MIXING:  cpu time    0.0023: real time    0.0023
    --------------------------------------------
      LOOP:  cpu time   17.1697: real time   17.2190

 eigenvalue-minimisations  :  6624
 total energy-change (2. order) :-0.1069032E+00  (-0.1147214E-02)
 number of electron       7.9999999 magnetization       0.2523363
 augmentation part        0.2004583 magnetization       0.2491170

 Broyden mixing:
  rms(total) = 0.85126E-01    rms(broyden)= 0.85126E-01
  rms(prec ) = 0.85584E-01
  weight for this iteration     100.00

 eigenvalues of (default mixing * dielectric matrix)
  average eigenvalue GAMMA=   1.5493
  3.1246  2.1596  0.9706  0.8125  0.6792

 Free energy of the ion-electron system (eV)
  ---------------------------------------------------
  alpha Z        PSCENC =         3.11636941
  Ewald energy   TEWEN  =      1293.13553554
  -Hartree energ DENC   =     -1536.31272962
  -exchange      EXHF   =         0.00000000
  -V(xc)+E(xc)   XCENC  =        27.49773848
  PAW double counting   =      1132.65347758    -1134.20510575
  entropy T*S    EENTRO =        -0.00041271
  eigenvalues    EBANDS =       -99.34865005
  atomic energy  EATOM  =       297.65276153
  Solvation  Ediel_sol  =         0.00000000
  ---------------------------------------------------
  free energy    TOTEN  =       -15.81101558 eV

  energy without entropy =      -15.81060287  energy(sigma->0) =      -15.81080923


--------------------------------------------------------------------------------------------------------




----------------------------------------- Iteration    1(  11)  ---------------------------------------


    POTLOK:  cpu time    2.0694: real time    2.0699
    SETDIJ:  cpu time    0.0079: real time    0.0079
     EDDAV:  cpu time   17.5852: real time   17.6769
       DOS:  cpu time    0.0192: real time    0.0192
    CHARGE:  cpu time    0.1775: real time    0.1775
    MIXING:  cpu time    0.0024: real time    0.0024
    --------------------------------------------
      LOOP:  cpu time   19.8643: real time   19.9846

 eigenvalue-minimisations  :  6944
 total energy-change (2. order) :-0.5374624E-01  (-0.2934127E-03)
 number of electron       7.9999999 magnetization       0.0620485
 augmentation part        0.2005796 magnetization       0.0603392

 Broyden mixing:
  rms(total) = 0.51908E-01    rms(broyden)= 0.51908E-01
  rms(prec ) = 0.52373E-01
  weight for this iteration     100.00

 eigenvalues of (default mixing * dielectric matrix)
  average eigenvalue GAMMA=   1.8400
  4.9659  2.4115  1.4123  0.8946  0.7486  0.6072

 Free energy of the ion-electron system (eV)
  ---------------------------------------------------
  alpha Z        PSCENC =         3.11636941
  Ewald energy   TEWEN  =      1293.13553554
  -Hartree energ DENC   =     -1537.38280085
  -exchange      EXHF   =         0.00000000
  -V(xc)+E(xc)   XCENC  =        27.45411734
  PAW double counting   =      1119.20809350    -1120.75177459
  entropy T*S    EENTRO =        -0.00048212
  eigenvalues    EBANDS =       -98.29658159
  atomic energy  EATOM  =       297.65276153
  Solvation  Ediel_sol  =         0.00000000
  ---------------------------------------------------
  free energy    TOTEN  =       -15.86476183 eV

  energy without entropy =      -15.86427971  energy(sigma->0) =      -15.86452077


--------------------------------------------------------------------------------------------------------




----------------------------------------- Iteration    1(  12)  ---------------------------------------


    POTLOK:  cpu time    2.0706: real time    2.0713
    SETDIJ:  cpu time    0.0086: real time    0.0086
     EDDAV:  cpu time   14.8196: real time   14.8215
       DOS:  cpu time    0.0193: real time    0.0193
    CHARGE:  cpu time    0.1781: real time    0.1781
    MIXING:  cpu time    0.0024: real time    0.0024
    --------------------------------------------
      LOOP:  cpu time   17.1011: real time   17.1630

 eigenvalue-minimisations  :  6560
 total energy-change (2. order) :-0.3380220E-01  (-0.4963422E-03)
 number of electron       7.9999999 magnetization       0.0073833
 augmentation part        0.2004048 magnetization       0.0069559

 Broyden mixing:
  rms(total) = 0.15887E-01    rms(broyden)= 0.15887E-01
  rms(prec ) = 0.16476E-01
  weight for this iteration     100.00

 eigenvalues of (default mixing * dielectric matrix)
  average eigenvalue GAMMA=   2.0028
  6.5939  2.3949  1.7911  1.0677  0.8438  0.7196  0.6088

 Free energy of the ion-electron system (eV)
  ---------------------------------------------------
  alpha Z        PSCENC =         3.11636941
  Ewald energy   TEWEN  =      1293.13553554
  -Hartree energ DENC   =     -1538.60569154
  -exchange      EXHF   =         0.00000000
  -V(xc)+E(xc)   XCENC  =        27.44391537
  PAW double counting   =      1102.29668500    -1103.85194810
  entropy T*S    EENTRO =        -0.00050335
  eigenvalues    EBANDS =       -97.08568789
  atomic energy  EATOM  =       297.65276153
  Solvation  Ediel_sol  =         0.00000000
  ---------------------------------------------------
  free energy    TOTEN  =       -15.89856403 eV

  energy without entropy =      -15.89806068  energy(sigma->0) =      -15.89831236


--------------------------------------------------------------------------------------------------------




----------------------------------------- Iteration    1(  13)  ---------------------------------------


    POTLOK:  cpu time    2.0682: real time    2.0684
    SETDIJ:  cpu time    0.0079: real time    0.0079
     EDDAV:  cpu time   14.4796: real time   14.4817
       DOS:  cpu time    0.0194: real time    0.0194
    CHARGE:  cpu time    0.1767: real time    0.1767
    MIXING:  cpu time    0.0025: real time    0.0025
    --------------------------------------------
      LOOP:  cpu time   16.7566: real time   16.7887

 eigenvalue-minimisations  :  6384
 total energy-change (2. order) :-0.8984172E-02  (-0.1141572E-03)
 number of electron       7.9999999 magnetization       0.0017353
 augmentation part        0.2001967 magnetization       0.0016609

 Broyden mixing:
  rms(total) = 0.40791E-02    rms(broyden)= 0.40790E-02
  rms(prec ) = 0.48806E-02
  weight for this iteration     100.00

 eigenvalues of (default mixing * dielectric matrix)
  average eigenvalue GAMMA=   1.9464
  6.9106  2.2898  2.0367  1.2553  0.9282  0.8338  0.6995  0.6177

 Free energy of the ion-electron system (eV)
  ---------------------------------------------------
  alpha Z        PSCENC =         3.11636941
  Ewald energy   TEWEN  =      1293.13553554
  -Hartree energ DENC   =     -1539.08382453
  -exchange      EXHF   =         0.00000000
  -V(xc)+E(xc)   XCENC  =        27.44876155
  PAW double counting   =      1097.39158279    -1098.95747300
  entropy T*S    EENTRO =        -0.00050388
  eigenvalues    EBANDS =       -96.61075761
  atomic energy  EATOM  =       297.65276153
  Solvation  Ediel_sol  =         0.00000000
  ---------------------------------------------------
  free energy    TOTEN  =       -15.90754820 eV

  energy without entropy =      -15.90704432  energy(sigma->0) =      -15.90729626


--------------------------------------------------------------------------------------------------------




----------------------------------------- Iteration    1(  14)  ---------------------------------------


    POTLOK:  cpu time    2.0645: real time    2.0648
    SETDIJ:  cpu time    0.0079: real time    0.0079
     EDDAV:  cpu time   13.8932: real time   13.8990
       DOS:  cpu time    0.0194: real time    0.0194
    CHARGE:  cpu time    0.1775: real time    0.1775
    MIXING:  cpu time    0.0027: real time    0.0027
    --------------------------------------------
      LOOP:  cpu time   16.1681: real time   16.2057

 eigenvalue-minimisations  :  6008
 total energy-change (2. order) :-0.2086197E-02  (-0.2395291E-04)
 number of electron       7.9999999 magnetization       0.0006756
 augmentation part        0.2001426 magnetization       0.0006519

 Broyden mixing:
  rms(total) = 0.21216E-02    rms(broyden)= 0.21216E-02
  rms(prec ) = 0.29614E-02
  weight for this iteration     100.00

 eigenvalues of (default mixing * dielectric matrix)
  average eigenvalue GAMMA=   1.8655
  6.9496  2.2002  2.2002  1.4203  1.0433  0.6214  0.6859  0.8640  0.8044

 Free energy of the ion-electron system (eV)
  ---------------------------------------------------
  alpha Z        PSCENC =         3.11636941
  Ewald energy   TEWEN  =      1293.13553554
  -Hartree energ DENC   =     -1539.14822502
  -exchange      EXHF   =         0.00000000
  -V(xc)+E(xc)   XCENC  =        27.44776160
  PAW double counting   =      1097.74179931    -1099.31005688
  entropy T*S    EENTRO =        -0.00050390
  eigenvalues    EBANDS =       -96.54507600
  atomic energy  EATOM  =       297.65276153
  Solvation  Ediel_sol  =         0.00000000
  ---------------------------------------------------
  free energy    TOTEN  =       -15.90963440 eV

  energy without entropy =      -15.90913050  energy(sigma->0) =      -15.90938245


--------------------------------------------------------------------------------------------------------




----------------------------------------- Iteration    1(  15)  ---------------------------------------


    POTLOK:  cpu time    2.0674: real time    2.0677
    SETDIJ:  cpu time    0.0080: real time    0.0080
     EDDAV:  cpu time   14.4272: real time   14.4293
       DOS:  cpu time    0.0188: real time    0.0188
    CHARGE:  cpu time    0.1787: real time    0.1787
    MIXING:  cpu time    0.0028: real time    0.0028
    --------------------------------------------
      LOOP:  cpu time   16.7053: real time   16.7361

 eigenvalue-minimisations  :  6312
 total energy-change (2. order) :-0.1234519E-02  (-0.1343544E-04)
 number of electron       7.9999999 magnetization      -0.0000027
 augmentation part        0.2001385 magnetization      -0.0000005

 Broyden mixing:
  rms(total) = 0.11699E-02    rms(broyden)= 0.11699E-02
  rms(prec ) = 0.18903E-02
  weight for this iteration     100.00

 eigenvalues of (default mixing * dielectric matrix)
  average eigenvalue GAMMA=   1.8893
  6.9681  2.4422  2.4422  1.8836  1.2779  0.9719  0.8438  0.6234  0.6769  0.7629

 Free energy of the ion-electron system (eV)
  ---------------------------------------------------
  alpha Z        PSCENC =         3.11636941
  Ewald energy   TEWEN  =      1293.13553554
  -Hartree energ DENC   =     -1539.16650728
  -exchange      EXHF   =         0.00000000
  -V(xc)+E(xc)   XCENC  =        27.44532907
  PAW double counting   =      1098.27409588    -1099.84327200
  entropy T*S    EENTRO =        -0.00050390
  eigenvalues    EBANDS =       -96.52467718
  atomic energy  EATOM  =       297.65276153
  Solvation  Ediel_sol  =         0.00000000
  ---------------------------------------------------
  free energy    TOTEN  =       -15.91086892 eV

  energy without entropy =      -15.91036502  energy(sigma->0) =      -15.91061697


--------------------------------------------------------------------------------------------------------




----------------------------------------- Iteration    1(  16)  ---------------------------------------


    POTLOK:  cpu time    2.0701: real time    2.0705
    SETDIJ:  cpu time    0.0080: real time    0.0080
     EDDAV:  cpu time   14.3737: real time   14.4249
       DOS:  cpu time    0.0192: real time    0.0192
    CHARGE:  cpu time    0.1784: real time    0.1784
    MIXING:  cpu time    0.0029: real time    0.0029
    --------------------------------------------
      LOOP:  cpu time   16.6551: real time   16.7341

 eigenvalue-minimisations  :  6304
 total energy-change (2. order) :-0.1369891E-02  (-0.1695604E-04)
 number of electron       7.9999999 magnetization      -0.0000790
 augmentation part        0.2001519 magnetization      -0.0000811

 Broyden mixing:
  rms(total) = 0.50384E-03    rms(broyden)= 0.50383E-03
  rms(prec ) = 0.95287E-03
  weight for this iteration     100.00

 eigenvalues of (default mixing * dielectric matrix)
  average eigenvalue GAMMA=   1.8666
  6.9745  3.0875  2.3801  1.9827  1.3457  1.0140  0.8987  0.8303  0.6252  0.7211
  0.6731

 Free energy of the ion-electron system (eV)
  ---------------------------------------------------
  alpha Z        PSCENC =         3.11636941
  Ewald energy   TEWEN  =      1293.13553554
  -Hartree energ DENC   =     -1539.19844102
  -exchange      EXHF   =         0.00000000
  -V(xc)+E(xc)   XCENC  =        27.44213593
  PAW double counting   =      1098.59632859    -1100.16630160
  entropy T*S    EENTRO =        -0.00050390
  eigenvalues    EBANDS =       -96.49012330
  atomic energy  EATOM  =       297.65276153
  Solvation  Ediel_sol  =         0.00000000
  ---------------------------------------------------
  free energy    TOTEN  =       -15.91223881 eV

  energy without entropy =      -15.91173491  energy(sigma->0) =      -15.91198686


--------------------------------------------------------------------------------------------------------




----------------------------------------- Iteration    1(  17)  ---------------------------------------


    POTLOK:  cpu time    2.0657: real time    2.0667
    SETDIJ:  cpu time    0.0085: real time    0.0085
     EDDAV:  cpu time   14.3905: real time   14.3948
       DOS:  cpu time    0.0194: real time    0.0194
    CHARGE:  cpu time    0.1776: real time    0.1776
    MIXING:  cpu time    0.0030: real time    0.0030
    --------------------------------------------
      LOOP:  cpu time   16.6670: real time   16.7147

 eigenvalue-minimisations  :  6344
 total energy-change (2. order) :-0.2582477E-03  (-0.2916188E-05)
 number of electron       7.9999999 magnetization      -0.0001110
 augmentation part        0.2001552 magnetization      -0.0001085

 Broyden mixing:
  rms(total) = 0.36443E-03    rms(broyden)= 0.36443E-03
  rms(prec ) = 0.70202E-03
  weight for this iteration     100.00

 eigenvalues of (default mixing * dielectric matrix)
  average eigenvalue GAMMA=   1.8658
  6.9754  3.3536  2.3775  1.9010  1.7741  1.2998  1.0005  0.8661  0.8298  0.6259
  0.6733  0.7124

 Free energy of the ion-electron system (eV)
  ---------------------------------------------------
  alpha Z        PSCENC =         3.11636941
  Ewald energy   TEWEN  =      1293.13553554
  -Hartree energ DENC   =     -1539.23234833
  -exchange      EXHF   =         0.00000000
  -V(xc)+E(xc)   XCENC  =        27.44164703
  PAW double counting   =      1098.57254246    -1100.14257508
  entropy T*S    EENTRO =        -0.00050390
  eigenvalues    EBANDS =       -96.45592572
  atomic energy  EATOM  =       297.65276153
  Solvation  Ediel_sol  =         0.00000000
  ---------------------------------------------------
  free energy    TOTEN  =       -15.91249706 eV

  energy without entropy =      -15.91199316  energy(sigma->0) =      -15.91224511


--------------------------------------------------------------------------------------------------------




----------------------------------------- Iteration    1(  18)  ---------------------------------------


    POTLOK:  cpu time    2.0715: real time    2.0715
    SETDIJ:  cpu time    0.0087: real time    0.0087
     EDDAV:  cpu time   14.9827: real time   14.9849
       DOS:  cpu time    0.0194: real time    0.0194
    CHARGE:  cpu time    0.1780: real time    0.1780
    MIXING:  cpu time    0.0031: real time    0.0031
    --------------------------------------------
      LOOP:  cpu time   17.2657: real time   17.3105

 eigenvalue-minimisations  :  6472
 total energy-change (2. order) :-0.5193674E-04  (-0.6498692E-05)
 number of electron       7.9999999 magnetization      -0.0000948
 augmentation part        0.2001522 magnetization      -0.0000924

 Broyden mixing:
  rms(total) = 0.19162E-03    rms(broyden)= 0.19162E-03
  rms(prec ) = 0.32868E-03
  weight for this iteration     100.00

 eigenvalues of (default mixing * dielectric matrix)
  average eigenvalue GAMMA=   1.9700
  6.9774  4.7689  2.6940  2.3964  1.9971  1.3396  1.0031  0.9090  0.8257  0.7314
  0.6280  0.6694  0.6694

 Free energy of the ion-electron system (eV)
  ---------------------------------------------------
  alpha Z        PSCENC =         3.11636941
  Ewald energy   TEWEN  =      1293.13553554
  -Hartree energ DENC   =     -1539.32256760
  -exchange      EXHF   =         0.00000000
  -V(xc)+E(xc)   XCENC  =        27.44166138
  PAW double counting   =      1098.66355907    -1100.23331534
  entropy T*S    EENTRO =        -0.00050390
  eigenvalues    EBANDS =       -96.36604909
  atomic energy  EATOM  =       297.65276153
  Solvation  Ediel_sol  =         0.00000000
  ---------------------------------------------------
  free energy    TOTEN  =       -15.91254899 eV

  energy without entropy =      -15.91204509  energy(sigma->0) =      -15.91229704


--------------------------------------------------------------------------------------------------------




----------------------------------------- Iteration    1(  19)  ---------------------------------------


    POTLOK:  cpu time    2.0713: real time    2.0717
    SETDIJ:  cpu time    0.0079: real time    0.0079
     EDDAV:  cpu time   14.7973: real time   14.8013
       DOS:  cpu time    0.0194: real time    0.0194
    CHARGE:  cpu time    0.1773: real time    0.1773
    MIXING:  cpu time    0.0032: real time    0.0032
    --------------------------------------------
      LOOP:  cpu time   17.0789: real time   17.1281

 eigenvalue-minimisations  :  6560
 total energy-change (2. order) :-0.3301470E-06  (-0.3016106E-06)
 number of electron       7.9999999 magnetization      -0.0000549
 augmentation part        0.2001519 magnetization      -0.0000545

 Broyden mixing:
  rms(total) = 0.11165E-03    rms(broyden)= 0.11165E-03
  rms(prec ) = 0.22285E-03
  weight for this iteration     100.00

 eigenvalues of (default mixing * dielectric matrix)
  average eigenvalue GAMMA=   1.9228
  6.9777  5.0514  2.7610  2.4227  1.9721  1.3488  1.0041  1.0041  0.8690  0.8265
  0.7303  0.6281  0.6614  0.6614

 Free energy of the ion-electron system (eV)
  ---------------------------------------------------
  alpha Z        PSCENC =         3.11636941
  Ewald energy   TEWEN  =      1293.13553554
  -Hartree energ DENC   =     -1539.35379345
  -exchange      EXHF   =         0.00000000
  -V(xc)+E(xc)   XCENC  =        27.44174165
  PAW double counting   =      1098.61947681    -1100.18916731
  entropy T*S    EENTRO =        -0.00050390
  eigenvalues    EBANDS =       -96.33496960
  atomic energy  EATOM  =       297.65276153
  Solvation  Ediel_sol  =         0.00000000
  ---------------------------------------------------
  free energy    TOTEN  =       -15.91254932 eV

  energy without entropy =      -15.91204542  energy(sigma->0) =      -15.91229737


--------------------------------------------------------------------------------------------------------




----------------------------------------- Iteration    1(  20)  ---------------------------------------


    POTLOK:  cpu time    2.1106: real time    2.1111
    SETDIJ:  cpu time    0.0079: real time    0.0079
     EDDAV:  cpu time   14.2529: real time   14.2571
       DOS:  cpu time    0.0193: real time    0.0193
    CHARGE:  cpu time    0.1782: real time    0.1782
[...]
     13       9.6812      0.00000
     14      10.3104      0.00000
     15      10.6439      0.00000
     16      12.5632      0.00000

 k-point    76 :       0.3000    0.2000    0.0000
  band No.  band energies     occupation 
      1     -17.9202      1.00000
      2     -13.7744      1.00000
      3     -11.5128      1.00000
      4      -5.6282      1.00000
      5      -0.2007      0.00000
      6       5.8985      0.00000
      7       6.1363      0.00000
      8       6.7365      0.00000
      9       7.4382      0.00000
     10       8.1197      0.00000
     11       8.2830      0.00000
     12       9.3202      0.00000
     13      10.4374      0.00000
     14      10.7237      0.00000
     15      10.7432      0.00000
     16      12.5344      0.00000

 k-point    77 :       0.3333    0.2000    0.0000
  band No.  band energies     occupation 
      1     -17.3416      1.00000
      2     -14.4759      1.00000
      3     -11.6796      1.00000
      4      -5.0689      1.00000
      5      -0.8684      0.00000
      6       6.7967      0.00000
      7       6.9977      0.00000
      8       7.5048      0.00000
      9       8.1676      0.00000
     10       8.2254      0.00000
     11       9.0633      0.00000
     12       9.6959      0.00000
     13      10.4832      0.00000
     14      11.0973      0.00000
     15      11.2685      0.00000
     16      11.3601      0.00000

 k-point    78 :       0.3667    0.2000    0.0000
  band No.  band energies     occupation 
      1     -16.7636      1.00000
      2     -15.1331      1.00000
      3     -11.7766      1.00000
      4      -4.6113      1.00000
      5      -1.3928      0.00000
      6       7.7406      0.00000
      7       7.8878      0.00000
      8       8.1021      0.00000
      9       8.1588      0.00000
     10       9.0151      0.00000
     11       9.7457      0.00000
     12       9.9395      0.00000
     13      10.0491      0.00000
     14      10.1760      0.00000
     15      11.1334      0.00000
     16      11.7378      0.00000

 k-point    79 :       0.4000    0.2000    0.0000
  band No.  band energies     occupation 
      1     -16.4040      1.00000
      2     -15.5200      1.00000
      3     -11.8084      1.00000
      4      -4.4185      1.00000
      5      -1.6083      0.00000
      6       8.0908      0.00000
      7       8.3119      0.00000
      8       8.5076      0.00000
      9       8.7223      0.00000
     10       8.9629      0.00000
     11       9.3097      0.00000
     12       9.6321      0.00000
     13      10.3217      0.00000
     14      10.3433      0.00000
     15      10.9316      0.00000
     16      11.2529      0.00000

 k-point    80 :       0.2333    0.2333    0.0000
  band No.  band energies     occupation 
      1     -18.4936      1.00000
      2     -12.8770      1.00000
      3     -11.4616      1.00000
      4      -6.2280      1.00000
      5       0.5864      0.00000
      6       5.0291      0.00000
      7       5.2989      0.00000
      8       5.9190      0.00000
      9       6.6358      0.00000
     10       7.3056      0.00000
     11       8.6985      0.00000
     12       8.9115      0.00000
     13       9.6893      0.00000
     14       9.6931      0.00000
     15      10.5807      0.00000
     16      12.5413      0.00000

 k-point    81 :       0.2667    0.2333    0.0000
  band No.  band energies     occupation 
      1     -17.9676      1.00000
      2     -13.4219      1.00000
      3     -11.8731      1.00000
      4      -5.6562      1.00000
      5      -0.0981      0.00000
      6       5.8268      0.00000
      7       6.0670      0.00000
      8       6.6498      0.00000
      9       7.3533      0.00000
     10       8.0921      0.00000
     11       9.1194      0.00000
     12       9.2111      0.00000
     13      10.0768      0.00000
     14      10.4582      0.00000
     15      10.6346      0.00000
     16      13.0460      0.00000

 k-point    82 :       0.3000    0.2333    0.0000
  band No.  band energies     occupation 
      1     -17.4079      1.00000
      2     -14.0374      1.00000
      3     -12.1502      1.00000
      4      -5.0778      1.00000
      5      -0.7632      0.00000
      6       6.6915      0.00000
      7       6.8959      0.00000
      8       7.3494      0.00000
      9       8.0927      0.00000
     10       8.9120      0.00000
     11       9.1097      0.00000
     12       9.5493      0.00000
     13      10.4609      0.00000
     14      11.0441      0.00000
     15      11.2586      0.00000
     16      12.2404      0.00000

 k-point    83 :       0.3333    0.2333    0.0000
  band No.  band energies     occupation 
      1     -16.8297      1.00000
      2     -14.6746      1.00000
      3     -12.3177      1.00000
      4      -4.5405      1.00000
      5      -1.3598      0.00000
      6       7.6129      0.00000
      7       7.7769      0.00000
      8       7.8436      0.00000
      9       8.8743      0.00000
     10       9.0108      0.00000
     11       9.8219      0.00000
     12       9.9947      0.00000
     13      10.2849      0.00000
     14      11.0365      0.00000
     15      11.6709      0.00000
     16      11.9946      0.00000

 k-point    84 :       0.3667    0.2333    0.0000
  band No.  band energies     occupation 
      1     -16.3060      1.00000
      2     -15.2339      1.00000
      3     -12.3966      1.00000
      4      -4.1661      1.00000
      5      -1.7643      0.00000
      6       8.0322      0.00000
      7       8.5435      0.00000
      8       8.6699      0.00000
      9       8.9815      0.00000
     10       9.5807      0.00000
     11       9.7158      0.00000
     12       9.9570      0.00000
     13      10.4979      0.00000
     14      10.7929      0.00000
     15      11.0674      0.00000
     16      11.8922      0.00000

 k-point    85 :       0.2667    0.2667    0.0000
  band No.  band energies     occupation 
      1     -17.4303      1.00000
      2     -13.8244      1.00000
      3     -12.3747      1.00000
      4      -5.0817      1.00000
      5      -0.7242      0.00000
      6       6.6562      0.00000
      7       6.8615      0.00000
      8       7.2946      0.00000
      9       8.0488      0.00000
     10       8.9039      0.00000
     11       9.4963      0.00000
     12       9.8255      0.00000
     13       9.9854      0.00000
     14      11.0180      0.00000
     15      11.2265      0.00000
     16      13.0225      0.00000

 k-point    86 :       0.3000    0.2667    0.0000
  band No.  band energies     occupation 
      1     -16.8668      1.00000
      2     -14.3149      1.00000
      3     -12.7173      1.00000
      4      -4.5080      1.00000
      5      -1.3330      0.00000
      6       7.5453      0.00000
      7       7.6981      0.00000
      8       7.7140      0.00000
      9       8.8001      0.00000
     10       9.7047      0.00000
     11       9.8382      0.00000
     12       9.9441      0.00000
     13      10.3386      0.00000
     14      11.7142      0.00000
     15      11.9709      0.00000
     16      12.0374      0.00000

 k-point    87 :       0.3333    0.2667    0.0000
  band No.  band energies     occupation 
      1     -16.3054      1.00000
      2     -14.8553      1.00000
      3     -12.9030      1.00000
      4      -3.9989      1.00000
      5      -1.8627      0.00000
      6       7.8192      0.00000
      7       8.4678      0.00000
      8       8.6052      0.00000
      9       9.6611      0.00000
     10       9.7130      0.00000
     11      10.1598      0.00000
     12      10.5169      0.00000
     13      10.7545      0.00000
     14      10.8872      0.00000
     15      11.8339      0.00000
     16      12.4838      0.00000

 k-point    88 :       0.3667    0.2667    0.0000
  band No.  band energies     occupation 
      1     -15.9488      1.00000
      2     -15.2097      1.00000
      3     -12.9606      1.00000
      4      -3.7548      1.00000
      5      -2.1136      0.00000
      6       7.8335      0.00000
      7       9.2148      0.00000
      8       9.3331      0.00000
      9       9.4308      0.00000
     10       9.8559      0.00000
     11      10.0359      0.00000
     12      10.3868      0.00000
     13      11.0177      0.00000
     14      11.0637      0.00000
     15      11.6005      0.00000
     16      11.9430      0.00000

 k-point    89 :       0.3000    0.3000    0.0000
  band No.  band energies     occupation 
      1     -16.3121      1.00000
      2     -14.6561      1.00000
      3     -13.1387      1.00000
      4      -3.9399      1.00000
      5      -1.8966      0.00000
      6       7.7422      0.00000
      7       8.4378      0.00000
      8       8.5772      0.00000
      9       9.6362      0.00000
     10      10.0681      0.00000
     11      10.3441      0.00000
     12      10.5197      0.00000
     13      10.7821      0.00000
     14      11.5940      0.00000
     15      12.2348      0.00000
     16      12.4964      0.00000

 k-point    90 :       0.3333    0.3000    0.0000
  band No.  band energies     occupation 
      1     -15.7987      1.00000
      2     -15.0607      1.00000
      3     -13.3532      1.00000
      4      -3.4530      0.99994
      5      -2.3799      0.00009
      6       7.7041      0.00000
      7       9.2684      0.00000
      8       9.4764      0.00000
      9       9.8957      0.00000
     10      10.3500      0.00000
     11      10.5322      0.00000
     12      10.7200      0.00000
     13      11.2812      0.00000
     14      11.6077      0.00000
     15      11.7444      0.00000
     16      12.0318      0.00000

 k-point    91 :       0.3333    0.3333    0.0000
  band No.  band energies     occupation 
      1     -15.3655      1.00000
      2     -15.3654      1.00000
      3     -13.5319      1.00000
      4      -2.9113      0.50002
      5      -2.9112      0.49985
      6       7.6534      0.00000
      7       9.7870      0.00000
      8       9.7886      0.00000
      9      10.2289      0.00000
     10      10.3871      0.00000
     11      10.3944      0.00000
     12      11.2449      0.00000
     13      11.4661      0.00000
     14      11.4727      0.00000
     15      11.9416      0.00000
     16      12.1978      0.00000


--------------------------------------------------------------------------------------------------------


 soft charge-density along one line, spin component           1
         0         1         2         3         4         5         6         7         8         9
 total charge-density along one line
 
 soft charge-density along one line, spin component           2
         0         1         2         3         4         5         6         7         8         9
 total charge-density along one line
 
 pseudopotential strength for first ion, spin component:           1
 10.493  13.957  -0.000  -0.000  -0.000   0.000   0.000   0.000
 13.957  18.565  -0.000  -0.000  -0.000   0.000   0.000   0.000
 -0.000  -0.000  -4.381   0.000  -0.000   8.460  -0.000   0.000
 -0.000  -0.000   0.000  -4.364   0.000  -0.000   8.434  -0.000
 -0.000  -0.000  -0.000   0.000  -4.381   0.000  -0.000   8.460
  0.000   0.000   8.460  -0.000   0.000 -18.434   0.000  -0.000
  0.000   0.000  -0.000   8.434  -0.000   0.000 -18.395   0.000
  0.000   0.000   0.000  -0.000   8.460  -0.000   0.000 -18.434
 pseudopotential strength for first ion, spin component:           2
 10.493  13.957  -0.000  -0.000   0.000   0.000   0.000  -0.000
 13.957  18.565  -0.000  -0.000   0.000   0.000   0.000  -0.000
 -0.000  -0.000  -4.381   0.000  -0.000   8.460  -0.000   0.000
 -0.000  -0.000   0.000  -4.364   0.000  -0.000   8.434  -0.000
  0.000   0.000  -0.000   0.000  -4.381   0.000  -0.000   8.460
  0.000   0.000   8.460  -0.000   0.000 -18.434   0.000  -0.000
  0.000   0.000  -0.000   8.434  -0.000   0.000 -18.395   0.000
 -0.000  -0.000   0.000  -0.000   8.460  -0.000   0.000 -18.434
 total augmentation occupancy for first ion, spin component:           1
 11.142  -5.447   0.000   0.000   0.000   0.000   0.000   0.000
 -5.447   2.699   0.000   0.000  -0.000  -0.000  -0.000   0.000
 -0.000  -0.000   1.853   0.000   0.000   0.174  -0.000   0.000
 -0.000   0.000   0.000   1.201   0.000   0.000   0.076   0.000
 -0.000  -0.000   0.000   0.000   1.853   0.000   0.000   0.174
  0.000   0.000   0.174  -0.000   0.000   0.018   0.000   0.000
  0.000   0.000   0.000   0.076   0.000   0.000   0.005   0.000
 -0.000   0.000   0.000   0.000   0.174   0.000   0.000   0.018
 total augmentation occupancy for first ion, spin component:           2
  0.000  -0.000  -0.000   0.000   0.000   0.000   0.000   0.000
 -0.000   0.000  -0.000   0.000  -0.000   0.000   0.000   0.000
 -0.000   0.000   0.000   0.000   0.000   0.000   0.000   0.000
  0.000   0.000   0.000   0.000  -0.000   0.000   0.000   0.000
  0.000   0.000   0.000   0.000   0.000   0.000   0.000   0.000
 -0.000  -0.000   0.000   0.000   0.000   0.000   0.000   0.000
  0.000   0.000   0.000   0.000   0.000   0.000   0.000   0.000
  0.000   0.000   0.000   0.000   0.000   0.000   0.000   0.000


------------------------ aborting loop because EDIFF is reached ----------------------------------------


 


 total charge     
 
# of ion     s       p       d       tot
----------------------------------------
  1        0.874   1.805   0.000   2.680
  2        0.874   1.805   0.000   2.680
------------------------------------------------
tot        1.749   3.610   0.000   5.359
 


 magnetization (x)
 
# of ion     s       p       d       tot
----------------------------------------
  1       -0.000   0.000   0.000   0.000
  2       -0.000   0.000   0.000   0.000
------------------------------------------------
tot       -0.000   0.000   0.000   0.000
 
    CHARGE:  cpu time    0.1776: real time    0.1777
    FORLOC:  cpu time    0.0011: real time    0.0011
    FORNL :  cpu time    0.1421: real time    0.1421
    STRESS:  cpu time    0.7285: real time    0.7286
    FORCOR:  cpu time    2.0674: real time    2.0696
    FORHAR:  cpu time    0.0093: real time    0.0093
    MIXING:  cpu time    0.0028: real time    0.0028
    OFIELD:  cpu time    0.0001: real time    0.0001

  FORCE on cell =-STRESS in cart. coord.  units (eV):
  Direction    XX          YY          ZZ          XY          YZ          ZX
  --------------------------------------------------------------------------------------
  Alpha Z     3.12548     3.12548     3.12548
  Ewald    1566.82570  1566.82437 -1835.94955     0.00000    -0.00000     0.00000
  Hartree  1532.62932  1532.62931 -1521.23219     0.00000     0.00000    -0.00000
  E(xc)     -30.21187   -30.21187   -31.25507    -0.00000     0.00000     0.00000
  Local   -3185.54684 -3185.54626  3254.69148     0.00000    -0.00000    -0.00000
  n-local    -7.24464    -6.25798    -5.92559     0.00946    -0.00000    -0.00000
  augment    -0.88632    -0.88631    -0.76707    -0.00000    -0.00000    -0.00000
  Kinetic   124.61459   117.01767   137.27240     0.05666     0.00000     0.00000
  Fock        0.00000     0.00000     0.00000     0.00000     0.00000     0.00000
  -------------------------------------------------------------------------------------
  Total      -0.00009    -0.00009    -0.04012    -0.00000     0.00000     0.00000
  in kB      -0.00138    -0.00138    -0.61145    -0.00000     0.00000     0.00000
  external pressure =       -0.20 kB  Pullay stress =        0.00 kB


 VOLUME and BASIS-vectors are now :
 -----------------------------------------------------------------------------
  energy-cutoff  :      750.00
  volume of cell :      105.13
      direct lattice vectors                 reciprocal lattice vectors
     1.231846317 -2.133621585  0.000000000     0.405894788 -0.234343336  0.000000000
     1.231846317  2.133621585  0.000000000     0.405894788  0.234343336  0.000000000
     0.000000000  0.000000000 20.000000000     0.000000000  0.000000000  0.050000000

  length of vectors
     2.463693653  2.463693653 20.000000000     0.468686866  0.468686866  0.050000000


 FORCES acting on ions
    electron-ion (+dipol)            ewald-force                    non-local-force                 convergence-correction
 -----------------------------------------------------------------------------------------------
   0.643E-08 0.206E-03 0.150E-04   0.180E-14 0.629E-03 0.529E-22   0.000E+00 0.416E-16 -.102E-19   -.202E-14 0.684E-11 0.943E-10
   0.643E-08 -.206E-03 0.150E-04   -.165E-14 -.629E-03 -.529E-22   0.555E-16 -.139E-16 -.102E-19   -.590E-16 -.685E-11 0.943E-10
 -----------------------------------------------------------------------------------------------
   0.129E-07 0.383E-09 0.301E-04   0.160E-15 0.296E-14 0.000E+00   0.555E-16 0.278E-16 -.203E-19   -.208E-14 -.469E-14 0.189E-09
 
 
 POSITION                                       TOTAL-FORCE (eV/Angst)
 -----------------------------------------------------------------------------------
      1.23185      0.71120      1.95076        -0.000000      0.000000     -0.000000
     -0.00000     -0.00000      1.95076         0.000000     -0.000000      0.000000
 -----------------------------------------------------------------------------------
    total drift:                                0.000000      0.000000      0.000030


--------------------------------------------------------------------------------------------------------



  FREE ENERGIE OF THE ION-ELECTRON SYSTEM (eV)
  ---------------------------------------------------
  free  energy   TOTEN  =       -15.91293126 eV

  energy  without entropy=      -15.91242748  energy(sigma->0) =      -15.91267937
 
 d Force = 0.0000000E+00[ 0.000E+00, 0.000E+00]  d Energy =-0.1095800E-05 0.110E-05
 d Force = 0.0000000E+00[ 0.000E+00, 0.000E+00]  d Ewald  = 0.4951138E+00-0.495E+00


--------------------------------------------------------------------------------------------------------


    POTLOK:  cpu time    2.0846: real time    2.0864


--------------------------------------------------------------------------------------------------------




--------------------------------------------------------------------------------------------------------


  
 reached required accuracy - stopping structural energy minimisation
     LOOP+:  cpu time  193.2800: real time  195.0122
    4ORBIT:  cpu time    0.0000: real time    0.0000
 


 total charge     
 
# of ion     s       p       d       tot
----------------------------------------
  1        0.874   1.805   0.000   2.680
  2        0.874   1.805   0.000   2.680
------------------------------------------------
tot        1.749   3.610   0.000   5.359
 


 magnetization (x)
 
# of ion     s       p       d       tot
----------------------------------------
  1       -0.000   0.000   0.000   0.000
  2       -0.000   0.000   0.000   0.000
------------------------------------------------
tot       -0.000   0.000   0.000   0.000
 

 total amount of memory used by VASP on root node    50965. kBytes
========================================================================

   base      :      30000. kBytes
   nonl-proj :       7261. kBytes
   fftplans  :       1853. kBytes
   grid      :       4577. kBytes
   one-center:          6. kBytes
   wavefun   :       7268. kBytes
 
  
  
 General timing and accounting informations for this job:
 ========================================================
  
                  Total CPU time used (sec):     1525.829
                            User time (sec):      857.943
                          System time (sec):      667.886
                         Elapsed time (sec):     1539.499
  
                   Maximum memory used (kb):      189856.
                   Average memory used (kb):           0.
  
                          Minor page faults:      4292592
                          Major page faults:            3
                 Voluntary context switches:         3022
