<?xml version="1.0" encoding="ISO-8859-1"?>
<modeling>
 <generator>
  <i name="program" type="string">vasp </i>
  <i name="version" type="string">5.4.1  </i>
  <i name="subversion" type="string">24Jun15 (build Dec 08 2016 12:24:04) complex                          parallel </i>
  <i name="platform" type="string">IFC91_ompi </i>
  <i name="date" type="string">2018 04 16 </i>
  <i name="time" type="string">10:54:47 </i>
 </generator>
 <incar>
  <i type="string" name="PREC">accurate</i>
  <i type="int" name="ISPIN">     2</i>
  <i type="int" name="NELM">   500</i>
  <i type="int" name="IBRION">     2</i>
  <i name="EDIFF">      0.00000010</i>
  <i name="EDIFFG">     -0.00100000</i>
  <i type="int" name="NSW">   500</i>
  <i type="int" name="ISIF">     3</i>
  <i name="ENCUT">    750.00000000</i>
  <i type="int" name="NEDOS">  5000</i>
  <i type="int" name="ISMEAR">     0</i>
  <i type="logical" name="LWAVE"> F  </i>
  <i type="logical" name="LCHARG"> F  </i>
  <i type="logical" name="LVTOT"> T  </i>
  <i type="logical" name="LVHAR"> T  </i>
  <i type="logical" name="LORBIT"> F  </i>
  <v type="int" name="KPOINT_BSE">    -1     0     0     0</v>
  <i type="int" name="NELM">   500</i>
  <i type="string" name="GGA"> Bo</i>
  <i name="PARAM1">      0.18333333</i>
  <i name="PARAM2">      0.22000000</i>
  <i type="logical" name="LUSE_VDW"> T  </i>
  <i name="AGGAC">      0.00000000</i>
 </incar>
 <kpoints>
  <generation param="Gamma">
   <v type="int" name="divisions">      30       30        1 </v>
   <v name="usershift">      0.00000000       0.00000000       0.00000000 </v>
   <v name="genvec1">      0.03333333       0.00000000       0.00000000 </v>
   <v name="genvec2">      0.00000000       0.03333333       0.00000000 </v>
   <v name="genvec3">      0.00000000       0.00000000       1.00000000 </v>
   <v name="shift">      0.00000000       0.00000000       0.00000000 </v>
  </generation>
  <varray name="kpointlist" >
   <v>       0.00000000       0.00000000       0.00000000 </v>
   <v>       0.03333333      -0.00000000       0.00000000 </v>
   <v>       0.06666667      -0.00000000       0.00000000 </v>
   <v>       0.10000000      -0.00000000       0.00000000 </v>
   <v>       0.13333333      -0.00000000       0.00000000 </v>
   <v>       0.16666667      -0.00000000       0.00000000 </v>
   <v>       0.20000000      -0.00000000       0.00000000 </v>
   <v>       0.23333333      -0.00000000       0.00000000 </v>
   <v>       0.26666667       0.00000000       0.00000000 </v>
   <v>       0.30000000      -0.00000000       0.00000000 </v>
   <v>       0.33333333      -0.00000000       0.00000000 </v>
   <v>       0.36666667      -0.00000000       0.00000000 </v>
   <v>       0.40000000      -0.00000000       0.00000000 </v>
   <v>       0.43333333      -0.00000000       0.00000000 </v>
   <v>       0.46666667      -0.00000000       0.00000000 </v>
   <v>       0.50000000      -0.00000000       0.00000000 </v>
   <v>       0.03333333       0.03333333       0.00000000 </v>
   <v>       0.06666667       0.03333333       0.00000000 </v>
   <v>       0.10000000       0.03333333       0.00000000 </v>
   <v>       0.13333333       0.03333333       0.00000000 </v>
   <v>       0.16666667       0.03333333       0.00000000 </v>
   <v>       0.20000000       0.03333333       0.00000000 </v>
   <v>       0.23333333       0.03333333       0.00000000 </v>
   <v>       0.26666667       0.03333333       0.00000000 </v>
   <v>       0.30000000       0.03333333       0.00000000 </v>
   <v>       0.33333333       0.03333333       0.00000000 </v>
   <v>       0.36666667       0.03333333       0.00000000 </v>
   <v>       0.40000000       0.03333333       0.00000000 </v>
   <v>       0.43333333       0.03333333       0.00000000 </v>
   <v>       0.46666667       0.03333333       0.00000000 </v>
   <v>       0.06666667       0.06666667       0.00000000 </v>
   <v>       0.10000000       0.06666667       0.00000000 </v>
   <v>       0.13333333       0.06666667       0.00000000 </v>
   <v>       0.16666667       0.06666667       0.00000000 </v>
   <v>       0.20000000       0.06666667       0.00000000 </v>
   <v>       0.23333333       0.06666667       0.00000000 </v>
   <v>       0.26666667       0.06666667       0.00000000 </v>
   <v>       0.30000000       0.06666667       0.00000000 </v>
   <v>       0.33333333       0.06666667       0.00000000 </v>
   <v>       0.36666667       0.06666667       0.00000000 </v>
   <v>       0.40000000       0.06666667       0.00000000 </v>
   <v>       0.43333333       0.06666667       0.00000000 </v>
   <v>       0.46666667       0.06666667       0.00000000 </v>
   <v>       0.10000000       0.10000000       0.00000000 </v>
   <v>       0.13333333       0.10000000       0.00000000 </v>
   <v>       0.16666667       0.10000000       0.00000000 </v>
   <v>       0.20000000       0.10000000       0.00000000 </v>
   <v>       0.23333333       0.10000000       0.00000000 </v>
   <v>       0.26666667       0.10000000       0.00000000 </v>
   <v>       0.30000000       0.10000000       0.00000000 </v>
   <v>       0.33333333       0.10000000       0.00000000 </v>
   <v>       0.36666667       0.10000000       0.00000000 </v>
   <v>       0.40000000       0.10000000       0.00000000 </v>
   <v>       0.43333333       0.10000000       0.00000000 </v>
   <v>       0.13333333       0.13333333       0.00000000 </v>
   <v>       0.16666667       0.13333333       0.00000000 </v>
   <v>       0.20000000       0.13333333       0.00000000 </v>
   <v>       0.23333333       0.13333333       0.00000000 </v>
   <v>       0.26666667       0.13333333       0.00000000 </v>
   <v>       0.30000000       0.13333333       0.00000000 </v>
   <v>       0.33333333       0.13333333       0.00000000 </v>
   <v>       0.36666667       0.13333333       0.00000000 </v>
   <v>       0.40000000       0.13333333       0.00000000 </v>
   <v>       0.43333333       0.13333333       0.00000000 </v>
   <v>       0.16666667       0.16666667       0.00000000 </v>
   <v>       0.20000000       0.16666667       0.00000000 </v>
   <v>       0.23333333       0.16666667       0.00000000 </v>
   <v>       0.26666667       0.16666667       0.00000000 </v>
   <v>       0.30000000       0.16666667       0.00000000 </v>
   <v>       0.33333333       0.16666667       0.00000000 </v>
   <v>       0.36666667       0.16666667       0.00000000 </v>
   <v>       0.40000000       0.16666667       0.00000000 </v>
   <v>       0.20000000       0.20000000       0.00000000 </v>
   <v>       0.23333333       0.20000000       0.00000000 </v>
   <v>       0.26666667       0.20000000       0.00000000 </v>
   <v>       0.30000000       0.20000000       0.00000000 </v>
   <v>       0.33333333       0.20000000       0.00000000 </v>
   <v>       0.36666667       0.20000000       0.00000000 </v>
   <v>       0.40000000       0.20000000       0.00000000 </v>
   <v>       0.23333333       0.23333333       0.00000000 </v>
   <v>       0.26666667       0.23333333       0.00000000 </v>
   <v>       0.30000000       0.23333333       0.00000000 </v>
   <v>       0.33333333       0.23333333       0.00000000 </v>
   <v>       0.36666667       0.23333333       0.00000000 </v>
   <v>       0.26666667       0.26666667       0.00000000 </v>
   <v>       0.30000000       0.26666667       0.00000000 </v>
   <v>       0.33333333       0.26666667       0.00000000 </v>
   <v>       0.36666667       0.26666667       0.00000000 </v>
   <v>       0.30000000       0.30000000       0.00000000 </v>
   <v>       0.33333333       0.30000000       0.00000000 </v>
   <v>       0.33333333       0.33333333       0.00000000 </v>
  </varray>
  <varray name="weights" >
   <v>       0.00111111 </v>
   <v>       0.00666667 </v>
   <v>       0.00666667 </v>
   <v>       0.00666667 </v>
   <v>       0.00666667 </v>
   <v>       0.00666667 </v>
   <v>       0.00666667 </v>
   <v>       0.00666667 </v>
   <v>       0.00666667 </v>
   <v>       0.00666667 </v>
   <v>       0.00666667 </v>
   <v>       0.00666667 </v>
   <v>       0.00666667 </v>
   <v>       0.00666667 </v>
   <v>       0.00666667 </v>
   <v>       0.00333333 </v>
   <v>       0.00666667 </v>
   <v>       0.01333333 </v>
   <v>       0.01333333 </v>
   <v>       0.01333333 </v>
   <v>       0.01333333 </v>
   <v>       0.01333333 </v>
   <v>       0.01333333 </v>
   <v>       0.01333333 </v>
   <v>       0.01333333 </v>
   <v>       0.01333333 </v>
   <v>       0.01333333 </v>
   <v>       0.01333333 </v>
   <v>       0.01333333 </v>
   <v>       0.01333333 </v>
   <v>       0.00666667 </v>
   <v>       0.01333333 </v>
   <v>       0.01333333 </v>
   <v>       0.01333333 </v>
   <v>       0.01333333 </v>
   <v>       0.01333333 </v>
   <v>       0.01333333 </v>
   <v>       0.01333333 </v>
   <v>       0.01333333 </v>
   <v>       0.01333333 </v>
   <v>       0.01333333 </v>
   <v>       0.01333333 </v>
   <v>       0.00666667 </v>
   <v>       0.00666667 </v>
   <v>       0.01333333 </v>
   <v>       0.01333333 </v>
   <v>       0.01333333 </v>
   <v>       0.01333333 </v>
   <v>       0.01333333 </v>
   <v>       0.01333333 </v>
   <v>       0.01333333 </v>
   <v>       0.01333333 </v>
   <v>       0.01333333 </v>
   <v>       0.01333333 </v>
   <v>       0.00666667 </v>
   <v>       0.01333333 </v>
   <v>       0.01333333 </v>
   <v>       0.01333333 </v>
   <v>       0.01333333 </v>
   <v>       0.01333333 </v>
   <v>       0.01333333 </v>
   <v>       0.01333333 </v>
   <v>       0.01333333 </v>
   <v>       0.00666667 </v>
   <v>       0.00666667 </v>
   <v>       0.01333333 </v>
   <v>       0.01333333 </v>
   <v>       0.01333333 </v>
   <v>       0.01333333 </v>
   <v>       0.01333333 </v>
   <v>       0.01333333 </v>
   <v>       0.01333333 </v>
   <v>       0.00666667 </v>
   <v>       0.01333333 </v>
   <v>       0.01333333 </v>
   <v>       0.01333333 </v>
   <v>       0.01333333 </v>
   <v>       0.01333333 </v>
   <v>       0.00666667 </v>
   <v>       0.00666667 </v>
   <v>       0.01333333 </v>
   <v>       0.01333333 </v>
   <v>       0.01333333 </v>
   <v>       0.01333333 </v>
   <v>       0.00666667 </v>
   <v>       0.01333333 </v>
   <v>       0.01333333 </v>
   <v>       0.00666667 </v>
   <v>       0.00666667 </v>
   <v>       0.01333333 </v>
   <v>       0.00222222 </v>
  </varray>
 </kpoints>
 <parameters>
  <separator name="general" >
   <i type="string" name="SYSTEM">unknown system</i>
   <i type="logical" name="LCOMPAT"> F  </i>
  </separator>
  <separator name="electronic" >
   <i type="string" name="PREC">accura</i>
   <i name="ENMAX">    750.00000000</i>
   <i name="ENAUG">    644.87300000</i>
   <i name="EDIFF">      0.00000010</i>
   <i type="int" name="IALGO">    38</i>
   <i type="int" name="IWAVPR">    11</i>
   <i type="int" name="NBANDS">    16</i>
   <i name="NELECT">      8.00000000</i>
   <i type="int" name="TURBO">     0</i>
   <i type="int" name="IRESTART">     0</i>
   <i type="int" name="NREBOOT">     0</i>
   <i type="int" name="NMIN">     0</i>
   <i name="EREF">      0.00000000</i>
   <separator name="electronic smearing" >
    <i type="int" name="ISMEAR">     0</i>
    <i name="SIGMA">      0.20000000</i>
    <i name="KSPACING">      0.50000000</i>
    <i type="logical" name="KGAMMA"> T  </i>
   </separator>
   <separator name="electronic projectors" >
    <i type="logical" name="LREAL"> F  </i>
    <v name="ROPT">      0.00000000</v>
    <i type="int" name="LMAXPAW">  -100</i>
    <i type="int" name="LMAXMIX">     2</i>
    <i type="logical" name="NLSPLINE"> F  </i>
   </separator>
   <separator name="electronic startup" >
    <i type="int" name="ISTART">     0</i>
    <i type="int" name="ICHARG">     2</i>
    <i type="int" name="INIWAV">     1</i>
   </separator>
   <separator name="electronic spin" >
    <i type="int" name="ISPIN">     2</i>
    <i type="logical" name="LNONCOLLINEAR"> F  </i>
    <v name="MAGMOM">      1.00000000      1.00000000</v>
    <i name="NUPDOWN">     -1.00000000</i>
    <i type="logical" name="LSORBIT"> F  </i>
    <v name="SAXIS">      0.00000000      0.00000000      1.00000000</v>
    <i type="logical" name="LSPIRAL"> F  </i>
    <v name="QSPIRAL">      0.00000000      0.00000000      0.00000000</v>
    <i type="logical" name="LZEROZ"> F  </i>
   </separator>
   <separator name="electronic exchange-correlation" >
    <i type="logical" name="LASPH"> F  </i>
    <i type="logical" name="LMETAGGA"> F  </i>
   </separator>
   <separator name="electronic convergence" >
    <i type="int" name="NELM">   500</i>
    <i type="int" name="NELMDL">    -5</i>
    <i type="int" name="NELMIN">     2</i>
    <i name="ENINI">    750.00000000</i>
    <separator name="electronic convergence detail" >
     <i type="logical" name="LDIAG"> T  </i>
     <i type="logical" name="LSUBROT"> F  </i>
     <i name="WEIMIN">      0.00100000</i>
     <i name="EBREAK">      0.00000000</i>
     <i name="DEPER">      0.30000000</i>
     <i type="int" name="NRMM">     4</i>
     <i name="TIME">      0.40000000</i>
    </separator>
   </separator>
   <separator name="electronic mixer" >
    <i name="AMIX">      0.40000000</i>
    <i name="BMIX">      1.00000000</i>
    <i name="AMIN">      0.10000000</i>
    <i name="AMIX_MAG">      1.60000000</i>
    <i name="BMIX_MAG">      1.00000000</i>
    <separator name="electronic mixer details" >
     <i type="int" name="IMIX">     4</i>
     <i type="logical" name="MIXFIRST"> F  </i>
     <i type="int" name="MAXMIX">   -45</i>
     <i name="WC">    100.00000000</i>
     <i type="int" name="INIMIX">     1</i>
     <i type="int" name="MIXPRE">     1</i>
     <i type="int" name="MREMOVE">     5</i>
    </separator>
   </separator>
   <separator name="electronic dipolcorrection" >
    <i type="logical" name="LDIPOL"> F  </i>
    <i type="logical" name="LMONO"> F  </i>
    <i type="int" name="IDIPOL">     0</i>
    <i name="EPSILON">      1.00000000</i>
    <v name="DIPOL">   -100.00000000   -100.00000000   -100.00000000</v>
    <i name="EFIELD">      0.00000000</i>
   </separator>
  </separator>
  <separator name="grids" >
   <i type="int" name="NGX">    24</i>
   <i type="int" name="NGY">    24</i>
   <i type="int" name="NGZ">   180</i>
   <i type="int" name="NGXF">    48</i>
   <i type="int" name="NGYF">    48</i>
   <i type="int" name="NGZF">   360</i>
   <i type="logical" name="ADDGRID"> F  </i>
  </separator>
  <separator name="ionic" >
   <i type="int" name="NSW">   500</i>
   <i type="int" name="IBRION">     2</i>
   <i type="int" name="ISIF">     3</i>
   <i name="PSTRESS">      0.00000000</i>
   <i name="EDIFFG">     -0.00100000</i>
   <i type="int" name="NFREE">     1</i>
   <i name="POTIM">      0.50000000</i>
   <i name="SMASS">     -3.00000000</i>
   <i name="SCALEE">      1.00000000</i>
  </separator>
  <separator name="ionic md" >
   <i name="TEBEG">      0.00010000</i>
   <i name="TEEND">      0.00010000</i>
   <i type="int" name="NBLOCK">     1</i>
   <i type="int" name="KBLOCK">   500</i>
   <i type="int" name="NPACO">   256</i>
   <i name="APACO">     16.00000000</i>
  </separator>
  <separator name="symmetry" >
   <i type="int" name="ISYM">     2</i>
   <i name="SYMPREC">      0.00001000</i>
  </separator>
  <separator name="dos" >
   <i type="logical" name="LORBIT"> F  </i>
   <v name="RWIGS">     -1.00000000</v>
   <i type="int" name="NEDOS">  5000</i>
   <i name="EMIN">     10.00000000</i>
   <i name="EMAX">    -10.00000000</i>
   <i name="EFERMI">      0.00000000</i>
  </separator>
  <separator name="writing" >
   <i type="int" name="NWRITE">     2</i>
   <i type="logical" name="LWAVE"> F  </i>
   <i type="logical" name="LCHARG"> F  </i>
   <i type="logical" name="LPARD"> F  </i>
   <i type="logical" name="LVTOT"> F  </i>
   <i type="logical" name="LVHAR"> T  </i>
   <i type="logical" name="LELF"> F  </i>
   <i type="logical" name="LOPTICS"> F  </i>
   <v name="STM">      0.00000000      0.00000000      0.00000000      0.00000000      0.00000000      0.00000000      0.00000000</v>
  </separator>
  <separator name="performance" >
   <i type="int" name="NPAR">     8</i>
   <i type="int" name="NSIM">     4</i>
   <i type="int" name="NBLK">    -1</i>
   <i type="logical" name="LPLANE"> T  </i>
   <i type="logical" name="LSCALAPACK"> T  </i>
   <i type="logical" name="LSCAAWARE"> F  </i>
   <i type="logical" name="LSCALU"> F  </i>
   <i type="logical" name="LASYNC"> F  </i>
   <i type="logical" name="LORBITALREAL"> F  </i>
  </separator>
  <separator name="miscellaneous" >
   <i type="int" name="IDIOT">     3</i>
   <i type="logical" name="LMUSIC"> F  </i>
   <v name="POMASS">     12.01100000</v>
   <v name="DARWINR">      0.00000000</v>
   <v name="DARWINV">      1.00000000</v>
   <i type="logical" name="LCORR"> T  </i>
  </separator>
  <i type="logical" name="GGA_COMPAT"> T  </i>
  <i type="logical" name="LBERRY"> F  </i>
  <i type="int" name="ICORELEVEL">     0</i>
  <i type="logical" name="LDAU"> F  </i>
  <i type="int" name="I_CONSTRAINED_M">     0</i>
  <separator name="electronic exchange-correlation" >
   <i type="string" name="GGA">BO</i>
   <i type="int" name="VOSKOWN">     0</i>
   <i type="logical" name="LHFCALC"> F  </i>
   <i type="string" name="PRECFOCK"></i>
   <i type="logical" name="LSYMGRAD"> F  </i>
   <i type="logical" name="LHFONE"> F  </i>
   <i type="logical" name="LRHFCALC"> F  </i>
   <i type="logical" name="LTHOMAS"> F  </i>
   <i type="logical" name="LMODELHF"> F  </i>
   <i name="ENCUT4O">     -1.00000000</i>
   <i type="int" name="EXXOEP">     0</i>
   <i type="int" name="FOURORBIT">     0</i>
   <i name="AEXX">      0.00000000</i>
   <i name="HFALPHA">      0.00000000</i>
   <i name="MCALPHA">      0.00000000</i>
   <i name="ALDAX">      1.00000000</i>
   <i name="AGGAX">      1.00000000</i>
   <i name="ALDAC">      1.00000000</i>
   <i name="AGGAC">      0.00000000</i>
   <i type="int" name="NKREDX">     1</i>
   <i type="int" name="NKREDY">     1</i>
   <i type="int" name="NKREDZ">     1</i>
   <i type="logical" name="SHIFTRED"> F  </i>
   <i type="logical" name="ODDONLY"> F  </i>
   <i type="logical" name="EVENONLY"> F  </i>
   <i type="int" name="LMAXFOCK">     0</i>
   <i type="int" name="NMAXFOCKAE">     0</i>
   <i type="logical" name="LFOCKAEDFT"> F  </i>
   <i name="HFSCREEN">      0.00000000</i>
   <i name="HFSCREENC">      0.00000000</i>
   <i type="int" name="NBANDSGWLOW">     0</i>
  </separator>
  <separator name="vdW DFT" >
   <i type="logical" name="LUSE_VDW"> T  </i>
   <i name="Zab_VDW">     -0.84910000</i>
   <i name="PARAM1">      0.18333333</i>
   <i name="PARAM2">      0.22000000</i>
   <i name="PARAM3">      0.00000000</i>
  </separator>
  <separator name="model GW" >
   <i type="int" name="MODEL_GW">     0</i>
   <i name="MODEL_EPS0">     31.63169900</i>
   <i name="MODEL_ALPHA">      1.00000000</i>
  </separator>
  <separator name="linear response parameters" >
   <i type="logical" name="LEPSILON"> F  </i>
   <i type="logical" name="LRPA"> F  </i>
   <i type="logical" name="LNABLA"> F  </i>
   <i type="logical" name="LVEL"> F  </i>
   <i type="int" name="KINTER">     0</i>
   <i name="CSHIFT">      0.10000000</i>
   <i name="OMEGAMAX">     -1.00000000</i>
   <i name="DEG_THRESHOLD">      0.00200000</i>
  </separator>
  <separator name="orbital magnetization" >
   <i type="logical" name="NUCIND"> F  </i>
   <v name="MAGPOS">      0.00000000      0.00000000      0.00000000</v>
   <i type="logical" name="LNICSALL"> T  </i>
   <i type="logical" name="ORBITALMAG"> F  </i>
   <i type="logical" name="LMAGBLOCH"> F  </i>
   <i type="logical" name="LCHIMAG"> F  </i>
   <i type="logical" name="LGAUGE"> T  </i>
   <i type="int" name="MAGATOM">     0</i>
   <v name="MAGDIPOL">      0.00000000      0.00000000      0.00000000</v>
   <v name="AVECCONST">      0.00000000      0.00000000      0.00000000</v>
  </separator>
  <separator name="response functions" >
   <i type="logical" name="LADDER"> F  </i>
   <i type="logical" name="LFXC"> F  </i>
   <i type="logical" name="LHARTREE"> T  </i>
   <i type="int" name="IBSE">     0</i>
   <v type="int" name="KPOINT">    -1     0     0     0</v>
   <i type="logical" name="LTCTE"> F  </i>
   <i type="logical" name="LTETE"> F  </i>
   <i type="logical" name="LTRIPLET"> F  </i>
   <i type="logical" name="LFXCEPS"> F  </i>
   <i type="logical" name="LFXHEG"> F  </i>
   <i type="int" name="NATURALO">     0</i>
   <i type="logical" name="L2ORDER"> F  </i>
   <i type="logical" name="LUSEW"> F  </i>
   <i name="ENCUTGW">     -2.00000000</i>
   <i name="ENCUTGWSOFT">     -2.00000000</i>
   <i name="ENCUTLF">     -1.00000000</i>
   <i type="int" name="LMAXMP2">    -1</i>
   <i name="SCISSOR">      0.00000000</i>
   <i type="int" name="NOMEGA">     0</i>
   <i type="int" name="NOMEGAR">     0</i>
   <i type="int" name="NBANDSGW">    -1</i>
   <i type="int" name="NBANDSO">    -1</i>
   <i type="int" name="NBANDSV">    -1</i>
   <i type="int" name="NELM">   500</i>
   <i type="int" name="NELMHF">     1</i>
   <i type="int" name="DIM">     3</i>
   <i type="int" name="ANTIRES">     0</i>
   <i name="OMEGAMAX">    -30.00000000</i>
   <i name="OMEGAMIN">    -30.00000000</i>
   <i name="OMEGATL">   -200.00000000</i>
   <i type="int" name="OMEGAGRID">     0</i>
   <i name="CSHIFT">     -0.10000000</i>
   <i type="logical" name="SELFENERGY"> F  </i>
   <i type="logical" name="LSPECTRAL"> F  </i>
   <i type="logical" name="LSPECTRALGW"> F  </i>
   <i type="logical" name="LSINGLES"> F  </i>
   <i type="logical" name="LFERMIGW"> F  </i>
   <i type="logical" name="ODDONLYGW"> F  </i>
   <i type="logical" name="EVENONLYGW"> F  </i>
   <i type="int" name="NKREDLFX">     1</i>
   <i type="int" name="NKREDLFY">     1</i>
   <i type="int" name="NKREDLFZ">     1</i>
   <i type="int" name="MAXMEM">  1800</i>
   <i type="int" name="TELESCOPE">     0</i>
   <i type="int" name="TAUPAR">     1</i>
   <i type="int" name="OMEGAPAR">    -1</i>
   <i name="LAMBDA">      1.00000000</i>
  </separator>
  <separator name="External order field" >
   <i name="OFIELD_KAPPA">      0.00000000</i>
   <v name="OFIELD_K">      0.00000000      0.00000000      0.00000000</v>
   <i name="OFIELD_Q6_NEAR">      0.00000000</i>
   <i name="OFIELD_Q6_FAR">      0.00000000</i>
   <i name="OFIELD_A">      0.00000000</i>
  </separator>
 </parameters>
 <atominfo>
  <atoms>       2 </atoms>
  <types>       1 </types>
  <array name="atoms" >
   <dimension dim="1">ion</dimension>
   <field type="string">element</field>
   <field type="int">atomtype</field>
   <set>
    <rc><c>C </c><c>   1</c></rc>
    <rc><c>C </c><c>   1</c></rc>
   </set>
  </array>
  <array name="atomtypes" >
   <dimension dim="1">type</dimension>
   <field type="int">atomspertype</field>
   <field type="string">element</field>
   <field>mass</field>
   <field>valence</field>
   <field type="string">pseudopotential</field>
   <set>
    <rc><c>   2</c><c>C </c><c>     12.01100000</c><c>      4.00000000</c><c>  PAW_PBE C 08Apr2002                   </c></rc>
   </set>
  </array>
 </atominfo>
 <structure name="initialpos" >
  <crystal>
   <varray name="basis" >
    <v>       1.23364500      -2.13673700       0.00000000 </v>
    <v>       1.23364500       2.13673700       0.00000000 </v>
    <v>       0.00000000       0.00000000      20.00000000 </v>
   </varray>
   <i name="volume">    105.43899665 </i>
   <varray name="rec_basis" >
    <v>       0.40530298      -0.23400166       0.00000000 </v>
    <v>       0.40530298       0.23400166       0.00000000 </v>
    <v>       0.00000000       0.00000000       0.05000000 </v>
   </varray>
  </crystal>
  <varray name="positions" >
   <v>       0.33333400       0.66666600       0.09753800 </v>
   <v>       0.00000000       0.00000000       0.09753800 </v>
  </varray>
 </structure>
 <calculation>
  <scstep>
   <time name="dav">   13.45   13.45</time>
   <time name="total">   16.14   16.25</time>
   <energy>
    <i name="alphaZ">      3.11636941 </i>
    <i name="ewald">   1293.13553554 </i>
    <i name="hartreedc">  -1505.84157649 </i>
    <i name="XCdc">     26.61114394 </i>
    <i name="pawpsdc">    234.13396038 </i>
    <i name="pawaedc">   -235.95409777 </i>
    <i name="eentropy">     -0.02066847 </i>
    <i name="bandstr">    -55.65594444 </i>
    <i name="atom">    297.65276153 </i>
    <i name="e_fr_energy">     57.17748364 </i>
    <i name="e_wo_entrp">     57.19815212 </i>
    <i name="e_0_energy">     57.18781788 </i>
   </energy>
  </scstep>
  <scstep>
   <time name="dav">   17.78   17.79</time>
   <time name="total">   17.80   17.84</time>
   <energy>
    <i name="e_fr_energy">    -11.50958745 </i>
    <i name="e_wo_entrp">    -11.50801801 </i>
    <i name="e_0_energy">    -11.50880273 </i>
   </energy>
  </scstep>
  <scstep>
   <time name="dav">   17.30   17.30</time>
   <time name="total">   17.32   17.35</time>
   <energy>
    <i name="e_fr_energy">    -16.72057869 </i>
    <i name="e_wo_entrp">    -16.71893252 </i>
    <i name="e_0_energy">    -16.71975560 </i>
   </energy>
  </scstep>
  <scstep>
   <time name="dav">   16.67   16.68</time>
   <time name="total">   16.69   16.76</time>
   <energy>
    <i name="e_fr_energy">    -16.78075360 </i>
    <i name="e_wo_entrp">    -16.77910089 </i>
    <i name="e_0_energy">    -16.77992725 </i>
   </energy>
  </scstep>
  <scstep>
   <time name="dav">   16.41   16.42</time>
   <time name="total">   16.61   16.67</time>
   <energy>
    <i name="e_fr_energy">    -16.78136232 </i>
    <i name="e_wo_entrp">    -16.77970959 </i>
    <i name="e_0_energy">    -16.78053596 </i>
   </energy>
  </scstep>
  <scstep>
   <time name="dav">   16.19   16.20</time>
   <time name="total">   18.46   18.50</time>
   <energy>
    <i name="e_fr_energy">    -15.58513742 </i>
    <i name="e_wo_entrp">    -15.58402850 </i>
    <i name="e_0_energy">    -15.58458296 </i>
   </energy>
  </scstep>
  <scstep>
   <time name="dav">   17.37   17.37</time>
   <time name="total">   19.65   19.68</time>
   <energy>
    <i name="e_fr_energy">    -15.61170248 </i>
    <i name="e_wo_entrp">    -15.61138923 </i>
    <i name="e_0_energy">    -15.61154585 </i>
   </energy>
  </scstep>
  <scstep>
   <time name="dav">   16.93   16.94</time>
   <time name="total">   19.21   19.24</time>
   <energy>
    <i name="e_fr_energy">    -15.61477741 </i>
    <i name="e_wo_entrp">    -15.61448938 </i>
    <i name="e_0_energy">    -15.61463339 </i>
   </energy>
  </scstep>
  <scstep>
   <time name="dav">   17.32   17.32</time>
   <time name="total">   19.59   19.62</time>
   <energy>
    <i name="e_fr_energy">    -15.70411241 </i>
    <i name="e_wo_entrp">    -15.70372603 </i>
    <i name="e_0_energy">    -15.70391922 </i>
   </energy>
  </scstep>
  <scstep>
   <time name="dav">   14.89   14.90</time>
   <time name="total">   17.17   17.22</time>
   <energy>
    <i name="e_fr_energy">    -15.81101558 </i>
    <i name="e_wo_entrp">    -15.81060287 </i>
    <i name="e_0_energy">    -15.81080923 </i>
   </energy>
  </scstep>
  <scstep>
   <time name="dav">   17.59   17.68</time>
   <time name="total">   19.86   19.98</time>
   <energy>
    <i name="e_fr_energy">    -15.86476183 </i>
    <i name="e_wo_entrp">    -15.86427971 </i>
    <i name="e_0_energy">    -15.86452077 </i>
   </energy>
  </scstep>
  <scstep>
   <time name="dav">   14.82   14.82</time>
   <time name="total">   17.10   17.16</time>
   <energy>
    <i name="e_fr_energy">    -15.89856403 </i>
    <i name="e_wo_entrp">    -15.89806068 </i>
    <i name="e_0_energy">    -15.89831236 </i>
   </energy>
  </scstep>
  <scstep>
   <time name="dav">   14.48   14.48</time>
   <time name="total">   16.76   16.79</time>
   <energy>
    <i name="e_fr_energy">    -15.90754820 </i>
    <i name="e_wo_entrp">    -15.90704432 </i>
    <i name="e_0_energy">    -15.90729626 </i>
   </energy>
  </scstep>
  <scstep>
   <time name="dav">   13.89   13.90</time>
   <time name="total">   16.17   16.21</time>
   <energy>
    <i name="e_fr_energy">    -15.90963440 </i>
    <i name="e_wo_entrp">    -15.90913050 </i>
    <i name="e_0_energy">    -15.90938245 </i>
   </energy>
  </scstep>
  <scstep>
   <time name="dav">   14.43   14.43</time>
   <time name="total">   16.71   16.74</time>
   <energy>
    <i name="e_fr_energy">    -15.91086892 </i>
    <i name="e_wo_entrp">    -15.91036502 </i>
    <i name="e_0_energy">    -15.91061697 </i>
   </energy>
  </scstep>
  <scstep>
   <time name="dav">   14.37   14.42</time>
   <time name="total">   16.66   16.73</time>
   <energy>
    <i name="e_fr_energy">    -15.91223881 </i>
    <i name="e_wo_entrp">    -15.91173491 </i>
    <i name="e_0_energy">    -15.91198686 </i>
   </energy>
  </scstep>
  <scstep>
   <time name="dav">   14.39   14.39</time>
   <time name="total">   16.67   16.71</time>
   <energy>
    <i name="e_fr_energy">    -15.91249706 </i>
    <i name="e_wo_entrp">    -15.91199316 </i>
    <i name="e_0_energy">    -15.91224511 </i>
   </energy>
  </scstep>
  <scstep>
   <time name="dav">   14.98   14.98</time>
   <time name="total">   17.27   17.31</time>
   <energy>
    <i name="e_fr_energy">    -15.91254899 </i>
    <i name="e_wo_entrp">    -15.91204509 </i>
    <i name="e_0_energy">    -15.91229704 </i>
   </energy>
  </scstep>
  <scstep>
   <time name="dav">   14.80   14.80</time>
   <time name="total">   17.08   17.13</time>
   <energy>
    <i name="e_fr_energy">    -15.91254932 </i>
    <i name="e_wo_entrp">    -15.91204542 </i>
    <i name="e_0_energy">    -15.91229737 </i>
   </energy>
  </scstep>
  <scstep>
   <time name="dav">   14.25   14.26</time>
   <time name="total">   16.57   16.61</time>
   <energy>
    <i name="e_fr_energy">    -15.91259080 </i>
    <i name="e_wo_entrp">    -15.91208690 </i>
    <i name="e_0_energy">    -15.91233885 </i>
   </energy>
  </scstep>
  <scstep>
   <time name="dav">   14.43   14.43</time>
   <time name="total">   16.71   16.74</time>
   <energy>
    <i name="e_fr_energy">    -15.91259282 </i>
    <i name="e_wo_entrp">    -15.91208892 </i>
    <i name="e_0_energy">    -15.91234087 </i>
   </energy>
  </scstep>
  <scstep>
   <time name="dav">   13.95   13.96</time>
   <time name="total">   20.74   20.80</time>
   <energy>
    <i name="e_fr_energy">    -15.91259584 </i>
    <i name="e_wo_entrp">    -15.91209194 </i>
    <i name="e_0_energy">    -15.91234389 </i>
   </energy>
  </scstep>
  <scstep>
   <time name="dav">   14.25   14.26</time>
   <time name="total">   16.53   16.56</time>
   <energy>
    <i name="e_fr_energy">    -15.91259803 </i>
    <i name="e_wo_entrp">    -15.91209413 </i>
    <i name="e_0_energy">    -15.91234608 </i>
   </energy>
  </scstep>
  <scstep>
   <time name="dav">   13.80   13.80</time>
   <time name="total">   16.07   16.11</time>
   <energy>
    <i name="e_fr_energy">    -15.91259683 </i>
    <i name="e_wo_entrp">    -15.91209293 </i>
    <i name="e_0_energy">    -15.91234488 </i>
   </energy>
  </scstep>
  <scstep>
   <time name="dav">   14.49   14.49</time>
   <time name="total">   16.77   16.80</time>
   <energy>
    <i name="e_fr_energy">    -15.91259896 </i>
    <i name="e_wo_entrp">    -15.91209506 </i>
    <i name="e_0_energy">    -15.91234701 </i>
   </energy>
  </scstep>
  <scstep>
   <time name="dav">   14.92   14.93</time>
   <time name="total">   17.20   17.24</time>
   <energy>
    <i name="e_fr_energy">    -15.91260200 </i>
    <i name="e_wo_entrp">    -15.91209810 </i>
    <i name="e_0_energy">    -15.91235005 </i>
   </energy>
  </scstep>
  <scstep>
   <time name="dav">   14.18   14.18</time>
   <time name="total">   17.77   17.81</time>
   <energy>
    <i name="e_fr_energy">    -15.91260257 </i>
    <i name="e_wo_entrp">    -15.91209867 </i>
    <i name="e_0_energy">    -15.91235062 </i>
   </energy>
  </scstep>
  <scstep>
   <time name="dav">   13.95   13.95</time>
   <time name="total">   16.23   16.26</time>
   <energy>
    <i name="e_fr_energy">    -15.91260015 </i>
    <i name="e_wo_entrp">    -15.91209625 </i>
    <i name="e_0_energy">    -15.91234820 </i>
   </energy>
  </scstep>
  <scstep>
   <time name="dav">   16.43   16.45</time>
   <time name="total">   18.72   18.75</time>
   <energy>
    <i name="e_fr_energy">    -15.91260083 </i>
    <i name="e_wo_entrp">    -15.91209693 </i>
    <i name="e_0_energy">    -15.91234888 </i>
   </energy>
  </scstep>
  <scstep>
   <time name="dav">   13.89   13.90</time>
   <time name="total">   16.17   16.20</time>
   <energy>
    <i name="e_fr_energy">    -15.91259786 </i>
    <i name="e_wo_entrp">    -15.91209396 </i>
    <i name="e_0_energy">    -15.91234591 </i>
   </energy>
  </scstep>
  <scstep>
   <time name="dav">   14.14   14.14</time>
   <time name="total">   16.47   16.52</time>
   <energy>
    <i name="e_fr_energy">    -15.91259774 </i>
    <i name="e_wo_entrp">    -15.91209384 </i>
    <i name="e_0_energy">    -15.91234579 </i>
   </energy>
  </scstep>
  <scstep>
   <time name="dav">   13.97   13.98</time>
   <time name="total">   16.25   16.30</time>
   <energy>
    <i name="e_fr_energy">    -15.91259821 </i>
    <i name="e_wo_entrp">    -15.91209431 </i>
    <i name="e_0_energy">    -15.91234626 </i>
   </energy>
  </scstep>
  <scstep>
   <time name="dav">   13.92   13.93</time>
   <time name="total">   16.02   16.38</time>
   <energy>
    <i name="alphaZ">      3.11636941 </i>
    <i name="ewald">   1293.13553554 </i>
    <i name="hartreedc">  -1539.44393404 </i>
    <i name="XCdc">     27.44224121 </i>
    <i name="pawpsdc">   1098.54300745 </i>
    <i name="pawaedc">  -1100.11273004 </i>
    <i name="eentropy">     -0.00050390 </i>
    <i name="bandstr">    -96.24534547 </i>
    <i name="atom">    297.65276153 </i>
    <i name="e_fr_energy">    -15.91259831 </i>
    <i name="e_wo_entrp">    -15.91209441 </i>
    <i name="e_0_energy">    -15.91234636 </i>
   </energy>
  </scstep>
  <structure>
   <crystal>
    <varray name="basis" >
     <v>       1.23364500      -2.13673700       0.00000000 </v>
     <v>       1.23364500       2.13673700       0.00000000 </v>
     <v>       0.00000000       0.00000000      20.00000000 </v>
    </varray>
    <i name="volume">    105.43899665 </i>
    <varray name="rec_basis" >
     <v>       0.40530298      -0.23400166       0.00000000 </v>
     <v>       0.40530298       0.23400166       0.00000000 </v>
     <v>       0.00000000       0.00000000       0.05000000 </v>
    </varray>
   </crystal>
   <varray name="positions" >
    <v>       0.33333400       0.66666600       0.09753800 </v>
    <v>       0.00000000       0.00000000       0.09753800 </v>
   </varray>
  </structure>
  <varray name="forces" >
   <v>       0.00000000       0.00000000       0.00000000 </v>
   <v>      -0.00000000      -0.00000000       0.00000000 </v>
  </varray>
  <varray name="stress" >
   <v>      -3.04915603       0.00000000       0.00000000 </v>
   <v>       0.00000000      -3.04915940      -0.00000000 </v>
   <v>       0.00000000      -0.00000000      -0.61123118 </v>
  </varray>
  <energy>
   <i name="e_fr_energy">    -15.91259831 </i>
   <i name="e_wo_entrp">    -15.91234636 </i>
   <i name="e_0_energy">     -0.00050390 </i>
  </energy>
  <time name="totalsc">  577.32  579.44</time>
 </calculation>
 <calculation>
  <scstep>
   <time name="dav">   14.50   14.50</time>
   <time name="total">   16.81   16.92</time>
   <energy>
    <i name="alphaZ">      3.14675816 </i>
    <i name="ewald">   1308.37217999 </i>
    <i name="hartreedc">  -1554.34399379 </i>
    <i name="XCdc">     27.52707433 </i>
    <i name="pawpsdc">   1098.54323894 </i>
    <i name="pawaedc">  -1100.11296138 </i>
    <i name="eentropy">     -0.00050351 </i>
    <i name="bandstr">    -96.69625825 </i>
    <i name="atom">    297.65276153 </i>
    <i name="e_fr_energy">    -15.91170399 </i>
    <i name="e_wo_entrp">    -15.91120048 </i>
    <i name="e_0_energy">    -15.91145223 </i>
   </energy>
  </scstep>
  <scstep>
   <time name="dav">   15.44   15.44</time>
   <time name="total">   17.75   17.84</time>
   <energy>
    <i name="e_fr_energy">    -15.91171118 </i>
    <i name="e_wo_entrp">    -15.91120767 </i>
    <i name="e_0_energy">    -15.91145943 </i>
   </energy>
  </scstep>
  <scstep>
   <time name="dav">   15.06   15.06</time>
   <time name="total">   17.40   17.48</time>
   <energy>
    <i name="e_fr_energy">    -15.91125987 </i>
    <i name="e_wo_entrp">    -15.91075637 </i>
    <i name="e_0_energy">    -15.91100812 </i>
   </energy>
  </scstep>
  <scstep>
   <time name="dav">   14.37   14.40</time>
   <time name="total">   16.65   16.76</time>
   <energy>
    <i name="e_fr_energy">    -15.91130700 </i>
    <i name="e_wo_entrp">    -15.91080349 </i>
    <i name="e_0_energy">    -15.91105525 </i>
   </energy>
  </scstep>
  <scstep>
   <time name="dav">   14.70   14.70</time>
   <time name="total">   16.98   17.17</time>
   <energy>
    <i name="e_fr_energy">    -15.91133474 </i>
    <i name="e_wo_entrp">    -15.91083123 </i>
    <i name="e_0_energy">    -15.91108299 </i>
   </energy>
  </scstep>
  <scstep>
   <time name="dav">   14.17   14.17</time>
   <time name="total">   16.45   16.53</time>
   <energy>
    <i name="e_fr_energy">    -15.91143830 </i>
    <i name="e_wo_entrp">    -15.91093479 </i>
    <i name="e_0_energy">    -15.91118655 </i>
   </energy>
  </scstep>
  <scstep>
   <time name="dav">   15.11   15.11</time>
   <time name="total">   17.39   17.52</time>
   <energy>
    <i name="e_fr_energy">    -15.91144584 </i>
    <i name="e_wo_entrp">    -15.91094233 </i>
    <i name="e_0_energy">    -15.91119409 </i>
   </energy>
  </scstep>
  <scstep>
   <time name="dav">   14.52   14.53</time>
   <time name="total">   16.80   16.95</time>
   <energy>
    <i name="e_fr_energy">    -15.91146040 </i>
    <i name="e_wo_entrp">    -15.91095690 </i>
    <i name="e_0_energy">    -15.91120865 </i>
   </energy>
  </scstep>
  <scstep>
   <time name="dav">   14.71   14.72</time>
   <time name="total">   17.00   17.11</time>
   <energy>
    <i name="e_fr_energy">    -15.91146616 </i>
    <i name="e_wo_entrp">    -15.91096265 </i>
    <i name="e_0_energy">    -15.91121441 </i>
   </energy>
  </scstep>
  <scstep>
   <time name="dav">   14.42   14.43</time>
   <time name="total">   16.76   16.88</time>
   <energy>
    <i name="e_fr_energy">    -15.91146268 </i>
    <i name="e_wo_entrp">    -15.91095917 </i>
    <i name="e_0_energy">    -15.91121093 </i>
   </energy>
  </scstep>
  <scstep>
   <time name="dav">   15.98   15.99</time>
   <time name="total">   18.27   18.41</time>
   <energy>
    <i name="e_fr_energy">    -15.91146072 </i>
    <i name="e_wo_entrp">    -15.91095721 </i>
    <i name="e_0_energy">    -15.91120896 </i>
   </energy>
  </scstep>
  <scstep>
   <time name="dav">   13.95   13.96</time>
   <time name="total">   16.24   16.35</time>
   <energy>
    <i name="e_fr_energy">    -15.91146531 </i>
    <i name="e_wo_entrp">    -15.91096180 </i>
    <i name="e_0_energy">    -15.91121355 </i>
   </energy>
  </scstep>
  <scstep>
   <time name="dav">   17.33   17.34</time>
   <time name="total">   19.60   19.69</time>
   <energy>
    <i name="e_fr_energy">    -15.91146577 </i>
    <i name="e_wo_entrp">    -15.91096226 </i>
    <i name="e_0_energy">    -15.91121402 </i>
   </energy>
  </scstep>
  <scstep>
   <time name="dav">   14.18   14.18</time>
   <time name="total">   16.46   16.52</time>
   <energy>
    <i name="e_fr_energy">    -15.91146517 </i>
    <i name="e_wo_entrp">    -15.91096166 </i>
    <i name="e_0_energy">    -15.91121342 </i>
   </energy>
  </scstep>
  <scstep>
   <time name="dav">   14.19   14.20</time>
   <time name="total">   16.48   16.58</time>
   <energy>
    <i name="e_fr_energy">    -15.91146335 </i>
    <i name="e_wo_entrp">    -15.91095984 </i>
    <i name="e_0_energy">    -15.91121159 </i>
   </energy>
  </scstep>
  <scstep>
   <time name="dav">   14.21   14.22</time>
   <time name="total">   16.51   17.38</time>
   <energy>
    <i name="e_fr_energy">    -15.91146187 </i>
    <i name="e_wo_entrp">    -15.91095837 </i>
    <i name="e_0_energy">    -15.91121012 </i>
   </energy>
  </scstep>
  <scstep>
   <time name="dav">   13.88   13.89</time>
   <time name="total">   16.18   16.31</time>
   <energy>
    <i name="e_fr_energy">    -15.91146080 </i>
    <i name="e_wo_entrp">    -15.91095729 </i>
    <i name="e_0_energy">    -15.91120904 </i>
   </energy>
  </scstep>
  <scstep>
   <time name="dav">   14.24   14.25</time>
   <time name="total">   16.52   16.65</time>
   <energy>
    <i name="e_fr_energy">    -15.91146023 </i>
    <i name="e_wo_entrp">    -15.91095673 </i>
    <i name="e_0_energy">    -15.91120848 </i>
   </energy>
  </scstep>
  <scstep>
   <time name="dav">   14.32   14.32</time>
   <time name="total">   16.60   16.74</time>
   <energy>
    <i name="e_fr_energy">    -15.91145995 </i>
    <i name="e_wo_entrp">    -15.91095645 </i>
    <i name="e_0_energy">    -15.91120820 </i>
   </energy>
  </scstep>
  <scstep>
   <time name="dav">   13.97   13.98</time>
   <time name="total">   16.26   16.38</time>
   <energy>
    <i name="e_fr_energy">    -15.91145922 </i>
    <i name="e_wo_entrp">    -15.91095572 </i>
    <i name="e_0_energy">    -15.91120747 </i>
   </energy>
  </scstep>
  <scstep>
   <time name="dav">   14.21   14.21</time>
   <time name="total">   16.51   16.60</time>
   <energy>
    <i name="e_fr_energy">    -15.91145898 </i>
    <i name="e_wo_entrp">    -15.91095547 </i>
    <i name="e_0_energy">    -15.91120723 </i>
   </energy>
  </scstep>
  <scstep>
   <time name="dav">   13.96   13.97</time>
   <time name="total">   16.06   16.18</time>
   <energy>
    <i name="alphaZ">      3.14675816 </i>
    <i name="ewald">   1308.37217999 </i>
    <i name="hartreedc">  -1554.73769360 </i>
    <i name="XCdc">     27.53100214 </i>
    <i name="pawpsdc">   1122.48061146 </i>
    <i name="pawaedc">  -1124.05870206 </i>
    <i name="eentropy">     -0.00050351 </i>
    <i name="bandstr">    -96.29787308 </i>
    <i name="atom">    297.65276153 </i>
    <i name="e_fr_energy">    -15.91145896 </i>
    <i name="e_wo_entrp">    -15.91095545 </i>
    <i name="e_0_energy">    -15.91120720 </i>
   </energy>
  </scstep>
  <structure>
   <crystal>
    <varray name="basis" >
     <v>       1.22767380      -2.12639456       0.00000000 </v>
     <v>       1.22767380       2.12639456       0.00000000 </v>
     <v>       0.00000000       0.00000000      20.00000000 </v>
    </varray>
    <i name="volume">    104.42075538 </i>
    <varray name="rec_basis" >
     <v>       0.40727431      -0.23513980       0.00000000 </v>
     <v>       0.40727431       0.23513980       0.00000000 </v>
     <v>       0.00000000       0.00000000       0.05000000 </v>
    </varray>
   </crystal>
   <varray name="positions" >
    <v>       0.33333400       0.66666600       0.09753800 </v>
    <v>       0.00000000      -0.00000000       0.09753800 </v>
   </varray>
  </structure>
  <varray name="forces" >
   <v>      -0.00000000      -0.00000000       0.00000000 </v>
   <v>       0.00000000       0.00000000      -0.00000000 </v>
  </varray>
  <varray name="stress" >
   <v>       7.23746101       0.00000000       0.00000000 </v>
   <v>       0.00000000       7.23746893       0.00000000 </v>
   <v>       0.00000000       0.00000000      -0.61060776 </v>
  </varray>
  <energy>
   <i name="e_fr_energy">    -15.91145896 </i>
   <i name="e_wo_entrp">    -15.91120720 </i>
   <i name="e_0_energy">     -0.00050351 </i>
  </energy>
  <time name="totalsc">  377.91  381.37</time>
 </calculation>
 <calculation>
  <scstep>
   <time name="dav">   14.38   14.43</time>
   <time name="total">   16.78   16.84</time>
   <energy>
    <i name="alphaZ">      3.12646444 </i>
    <i name="ewald">   1298.19568271 </i>
    <i name="hartreedc">  -1544.78403039 </i>
    <i name="XCdc">     27.47439629 </i>
    <i name="pawpsdc">   1122.48053567 </i>
    <i name="pawaedc">  -1124.05862625 </i>
    <i name="eentropy">     -0.00050376 </i>
    <i name="bandstr">    -95.99991467 </i>
    <i name="atom">    297.65276153 </i>
    <i name="e_fr_energy">    -15.91323444 </i>
    <i name="e_wo_entrp">    -15.91273068 </i>
    <i name="e_0_energy">    -15.91298256 </i>
   </energy>
  </scstep>
  <scstep>
   <time name="dav">   15.52   15.54</time>
   <time name="total">   17.81   17.96</time>
   <energy>
    <i name="e_fr_energy">    -15.91297788 </i>
    <i name="e_wo_entrp">    -15.91247412 </i>
    <i name="e_0_energy">    -15.91272600 </i>
   </energy>
  </scstep>
  <scstep>
   <time name="dav">   15.04   15.05</time>
   <time name="total">   17.32   17.41</time>
   <energy>
    <i name="e_fr_energy">    -15.91298795 </i>
    <i name="e_wo_entrp">    -15.91248419 </i>
    <i name="e_0_energy">    -15.91273607 </i>
   </energy>
  </scstep>
  <scstep>
   <time name="dav">   14.18   14.18</time>
   <time name="total">   16.55   16.60</time>
   <energy>
    <i name="e_fr_energy">    -15.91295735 </i>
    <i name="e_wo_entrp">    -15.91245359 </i>
    <i name="e_0_energy">    -15.91270547 </i>
   </energy>
  </scstep>
  <scstep>
   <time name="dav">   14.07   14.07</time>
   <time name="total">   16.34   16.40</time>
   <energy>
    <i name="e_fr_energy">    -15.91287912 </i>
    <i name="e_wo_entrp">    -15.91237536 </i>
    <i name="e_0_energy">    -15.91262724 </i>
   </energy>
  </scstep>
  <scstep>
   <time name="dav">   16.61   16.62</time>
   <time name="total">   18.89   18.99</time>
   <energy>
    <i name="e_fr_energy">    -15.91288163 </i>
    <i name="e_wo_entrp">    -15.91237787 </i>
    <i name="e_0_energy">    -15.91262975 </i>
   </energy>
  </scstep>
  <scstep>
   <time name="dav">   14.17   14.17</time>
   <time name="total">   16.47   16.54</time>
   <energy>
    <i name="e_fr_energy">    -15.91289378 </i>
    <i name="e_wo_entrp">    -15.91239001 </i>
    <i name="e_0_energy">    -15.91264190 </i>
   </energy>
  </scstep>
  <scstep>
   <time name="dav">   13.94   13.98</time>
   <time name="total">   16.22   16.37</time>
   <energy>
    <i name="e_fr_energy">    -15.91291783 </i>
    <i name="e_wo_entrp">    -15.91241407 </i>
    <i name="e_0_energy">    -15.91266595 </i>
   </energy>
  </scstep>
  <scstep>
   <time name="dav">   16.35   16.46</time>
   <time name="total">   18.63   18.86</time>
   <energy>
    <i name="e_fr_energy">    -15.91292417 </i>
    <i name="e_wo_entrp">    -15.91242041 </i>
    <i name="e_0_energy">    -15.91267229 </i>
   </energy>
  </scstep>
  <scstep>
   <time name="dav">   13.67   13.67</time>
   <time name="total">   15.95   16.07</time>
   <energy>
    <i name="e_fr_energy">    -15.91292957 </i>
    <i name="e_wo_entrp">    -15.91242580 </i>
    <i name="e_0_energy">    -15.91267769 </i>
   </energy>
  </scstep>
  <scstep>
   <time name="dav">   14.36   14.37</time>
   <time name="total">   16.68   16.77</time>
   <energy>
    <i name="e_fr_energy">    -15.91292642 </i>
    <i name="e_wo_entrp">    -15.91242266 </i>
    <i name="e_0_energy">    -15.91267454 </i>
   </energy>
  </scstep>
  <scstep>
   <time name="dav">   14.20   14.21</time>
   <time name="total">   16.48   16.62</time>
   <energy>
    <i name="e_fr_energy">    -15.91292540 </i>
    <i name="e_wo_entrp">    -15.91242164 </i>
    <i name="e_0_energy">    -15.91267352 </i>
   </energy>
  </scstep>
  <scstep>
   <time name="dav">   14.71   14.71</time>
   <time name="total">   16.97   17.12</time>
   <energy>
    <i name="e_fr_energy">    -15.91292624 </i>
    <i name="e_wo_entrp">    -15.91242247 </i>
    <i name="e_0_energy">    -15.91267435 </i>
   </energy>
  </scstep>
  <scstep>
   <time name="dav">   14.58   14.59</time>
   <time name="total">   16.84   17.00</time>
   <energy>
    <i name="e_fr_energy">    -15.91292749 </i>
    <i name="e_wo_entrp">    -15.91242373 </i>
    <i name="e_0_energy">    -15.91267561 </i>
   </energy>
  </scstep>
  <scstep>
   <time name="dav">   15.41   15.41</time>
   <time name="total">   17.70   17.79</time>
   <energy>
    <i name="e_fr_energy">    -15.91292920 </i>
    <i name="e_wo_entrp">    -15.91242543 </i>
    <i name="e_0_energy">    -15.91267731 </i>
   </energy>
  </scstep>
  <scstep>
   <time name="dav">   14.53   14.53</time>
   <time name="total">   16.81   16.91</time>
   <energy>
    <i name="e_fr_energy">    -15.91293023 </i>
    <i name="e_wo_entrp">    -15.91242647 </i>
    <i name="e_0_energy">    -15.91267835 </i>
   </energy>
  </scstep>
  <scstep>
   <time name="dav">   14.99   14.99</time>
   <time name="total">   17.26   17.36</time>
   <energy>
    <i name="e_fr_energy">    -15.91293072 </i>
    <i name="e_wo_entrp">    -15.91242696 </i>
    <i name="e_0_energy">    -15.91267884 </i>
   </energy>
  </scstep>
  <scstep>
   <time name="dav">   14.85   14.85</time>
   <time name="total">   17.14   17.27</time>
   <energy>
    <i name="e_fr_energy">    -15.91293101 </i>
    <i name="e_wo_entrp">    -15.91242725 </i>
    <i name="e_0_energy">    -15.91267913 </i>
   </energy>
  </scstep>
  <scstep>
   <time name="dav">   14.60   14.60</time>
   <time name="total">   16.88   17.43</time>
   <energy>
    <i name="e_fr_energy">    -15.91293209 </i>
    <i name="e_wo_entrp">    -15.91242832 </i>
    <i name="e_0_energy">    -15.91268020 </i>
   </energy>
  </scstep>
  <scstep>
   <time name="dav">   14.34   14.34</time>
   <time name="total">   16.62   16.73</time>
   <energy>
    <i name="e_fr_energy">    -15.91293231 </i>
    <i name="e_wo_entrp">    -15.91242854 </i>
    <i name="e_0_energy">    -15.91268042 </i>
   </energy>
  </scstep>
  <scstep>
   <time name="dav">   14.11   14.12</time>
   <time name="total">   16.21   16.33</time>
   <energy>
    <i name="alphaZ">      3.12646444 </i>
    <i name="ewald">   1298.19568271 </i>
    <i name="hartreedc">  -1544.52344533 </i>
    <i name="XCdc">     27.47176561 </i>
    <i name="pawpsdc">   1106.45441619 </i>
    <i name="pawaedc">  -1108.02689682 </i>
    <i name="eentropy">     -0.00050376 </i>
    <i name="bandstr">    -96.26317691 </i>
    <i name="atom">    297.65276153 </i>
    <i name="e_fr_energy">    -15.91293235 </i>
    <i name="e_wo_entrp">    -15.91242859 </i>
    <i name="e_0_energy">    -15.91268047 </i>
   </energy>
  </scstep>
  <structure>
   <crystal>
    <varray name="basis" >
     <v>       1.23165174      -2.13328456       0.00000000 </v>
     <v>       1.23165174       2.13328456       0.00000000 </v>
     <v>       0.00000000       0.00000000      20.00000000 </v>
    </varray>
    <i name="volume">    105.09854518 </i>
    <varray name="rec_basis" >
     <v>       0.40595891      -0.23438036       0.00000000 </v>
     <v>       0.40595891       0.23438036       0.00000000 </v>
     <v>       0.00000000       0.00000000       0.05000000 </v>
    </varray>
   </crystal>
   <varray name="positions" >
    <v>       0.33333400       0.66666600       0.09753800 </v>
    <v>       0.00000000      -0.00000000       0.09753800 </v>
   </varray>
  </structure>
  <varray name="forces" >
   <v>      -0.00000000      -0.00000000       0.00000000 </v>
   <v>       0.00000000       0.00000000      -0.00000000 </v>
  </varray>
  <varray name="stress" >
   <v>       0.33092661       0.00000000       0.00000000 </v>
   <v>       0.00000000       0.33092697      -0.00000000 </v>
   <v>      -0.00000000       0.00000000      -0.61135270 </v>
  </varray>
  <energy>
   <i name="e_fr_energy">    -15.91293235 </i>
   <i name="e_wo_entrp">    -15.91268047 </i>
   <i name="e_0_energy">     -0.00050376 </i>
  </energy>
  <time name="totalsc">  362.83  365.89</time>
 </calculation>
 <calculation>
  <scstep>
   <time name="dav">   13.71   13.71</time>
   <time name="total">   15.99   16.00</time>
   <energy>
    <i name="alphaZ">      3.12547681 </i>
    <i name="ewald">   1297.70056888 </i>
    <i name="hartreedc">  -1544.03914165 </i>
    <i name="XCdc">     27.46900471 </i>
    <i name="pawpsdc">   1106.45466967 </i>
    <i name="pawaedc">  -1108.02715032 </i>
    <i name="eentropy">     -0.00050378 </i>
    <i name="bandstr">    -96.24862211 </i>
    <i name="atom">    297.65276153 </i>
    <i name="e_fr_energy">    -15.91293625 </i>
    <i name="e_wo_entrp">    -15.91243248 </i>
    <i name="e_0_energy">    -15.91268436 </i>
   </energy>
  </scstep>
  <scstep>
   <time name="dav">   15.47   15.47</time>
   <time name="total">   17.75   17.86</time>
   <energy>
    <i name="e_fr_energy">    -15.91292888 </i>
    <i name="e_wo_entrp">    -15.91242511 </i>
    <i name="e_0_energy">    -15.91267699 </i>
   </energy>
  </scstep>
  <scstep>
   <time name="dav">   14.89   14.90</time>
   <time name="total">   17.17   17.25</time>
   <energy>
    <i name="e_fr_energy">    -15.91293634 </i>
    <i name="e_wo_entrp">    -15.91243257 </i>
    <i name="e_0_energy">    -15.91268446 </i>
   </energy>
  </scstep>
  <scstep>
   <time name="dav">   14.87   14.88</time>
   <time name="total">   17.18   17.20</time>
   <energy>
    <i name="e_fr_energy">    -15.91293385 </i>
    <i name="e_wo_entrp">    -15.91243008 </i>
    <i name="e_0_energy">    -15.91268197 </i>
   </energy>
  </scstep>
  <scstep>
   <time name="dav">   14.47   14.48</time>
   <time name="total">   16.75   16.85</time>
   <energy>
    <i name="e_fr_energy">    -15.91293275 </i>
    <i name="e_wo_entrp">    -15.91242897 </i>
    <i name="e_0_energy">    -15.91268086 </i>
   </energy>
  </scstep>
  <scstep>
   <time name="dav">   16.56   16.56</time>
   <time name="total">   18.95   19.07</time>
   <energy>
    <i name="e_fr_energy">    -15.91292889 </i>
    <i name="e_wo_entrp">    -15.91242511 </i>
    <i name="e_0_energy">    -15.91267700 </i>
   </energy>
  </scstep>
  <scstep>
   <time name="dav">   14.63   14.63</time>
   <time name="total">   16.91   17.02</time>
   <energy>
    <i name="e_fr_energy">    -15.91292907 </i>
    <i name="e_wo_entrp">    -15.91242530 </i>
    <i name="e_0_energy">    -15.91267718 </i>
   </energy>
  </scstep>
  <scstep>
   <time name="dav">   13.97   13.98</time>
   <time name="total">   16.25   16.36</time>
   <energy>
    <i name="e_fr_energy">    -15.91292957 </i>
    <i name="e_wo_entrp">    -15.91242579 </i>
    <i name="e_0_energy">    -15.91267768 </i>
   </energy>
  </scstep>
  <scstep>
   <time name="dav">   14.44   14.45</time>
   <time name="total">   16.73   16.82</time>
   <energy>
    <i name="e_fr_energy">    -15.91293029 </i>
    <i name="e_wo_entrp">    -15.91242652 </i>
    <i name="e_0_energy">    -15.91267840 </i>
   </energy>
  </scstep>
  <scstep>
   <time name="dav">   14.21   14.21</time>
   <time name="total">   16.77   17.05</time>
   <energy>
    <i name="e_fr_energy">    -15.91293118 </i>
    <i name="e_wo_entrp">    -15.91242740 </i>
    <i name="e_0_energy">    -15.91267929 </i>
   </energy>
  </scstep>
  <scstep>
   <time name="dav">   15.40   15.40</time>
   <time name="total">   17.53   17.90</time>
   <energy>
    <i name="alphaZ">      3.12547681 </i>
    <i name="ewald">   1297.70056888 </i>
    <i name="hartreedc">  -1544.02653826 </i>
    <i name="XCdc">     27.46887874 </i>
    <i name="pawpsdc">   1105.67748976 </i>
    <i name="pawaedc">  -1107.24969994 </i>
    <i name="eentropy">     -0.00050378 </i>
    <i name="bandstr">    -96.26136499 </i>
    <i name="atom">    297.65276153 </i>
    <i name="e_fr_energy">    -15.91293126 </i>
    <i name="e_wo_entrp">    -15.91242748 </i>
    <i name="e_0_energy">    -15.91267937 </i>
   </energy>
  </scstep>
  <structure>
   <crystal>
    <varray name="basis" >
     <v>       1.23184632      -2.13362158       0.00000000 </v>
     <v>       1.23184632       2.13362158       0.00000000 </v>
     <v>       0.00000000       0.00000000      20.00000000 </v>
    </varray>
    <i name="volume">    105.13175568 </i>
    <varray name="rec_basis" >
     <v>       0.40589479      -0.23434334       0.00000000 </v>
     <v>       0.40589479       0.23434334       0.00000000 </v>
     <v>       0.00000000       0.00000000       0.05000000 </v>
    </varray>
   </crystal>
   <varray name="positions" >
    <v>       0.33333400       0.66666600       0.09753800 </v>
    <v>       0.00000000      -0.00000000       0.09753800 </v>
   </varray>
  </structure>
  <varray name="forces" >
   <v>      -0.00000000       0.00000000      -0.00000000 </v>
   <v>       0.00000000      -0.00000000       0.00000000 </v>
  </varray>
  <varray name="stress" >
   <v>      -0.00137732       0.00000000       0.00000000 </v>
   <v>      -0.00000000      -0.00137732       0.00000000 </v>
   <v>      -0.00000000       0.00000000      -0.61145273 </v>
  </varray>
  <energy>
   <i name="e_fr_energy">    -15.91293126 </i>
   <i name="e_wo_entrp">    -15.91267937 </i>
   <i name="e_0_energy">     -0.00050378 </i>
  </energy>
  <time name="totalsc">  193.28  195.01</time>
  <eigenvalues>
   <array>
    <dimension dim="1">band</dimension>
    <dimension dim="2">kpoint</dimension>
    <dimension dim="3">spin</dimension>
    <field>eigene</field>
    <field>occ</field>
    <set>
     <set comment="spin 1">
      <set comment="kpoint 1">
       <r>  -22.1858    1.0000 </r>
       <r>  -10.5559    1.0000 </r>
       <r>   -6.1375    1.0000 </r>
       <r>   -6.1374    1.0000 </r>
       <r>   -0.3347    0.0000 </r>
       <r>    0.0799    0.0000 </r>
       <r>    0.6479    0.0000 </r>
       <r>    1.4428    0.0000 </r>
       <r>    1.9871    0.0000 </r>
       <r>    3.6422    0.0000 </r>
       <r>    4.4026    0.0000 </r>
       <r>    5.4578    0.0000 </r>
       <r>    5.4580    0.0000 </r>
       <r>    6.6709    0.0000 </r>
       <r>    7.4414    0.0000 </r>
       <r>    8.5666    0.0000 </r>
      </set>
      <set comment="kpoint 2">
       <r>  -22.1600    1.0000 </r>
       <r>  -10.5244    1.0000 </r>
       <r>   -6.2408    1.0000 </r>
       <r>   -6.1937    1.0000 </r>
       <r>   -0.2981    0.0000 </r>
       <r>    0.1156    0.0000 </r>
       <r>    0.6843    0.0000 </r>
       <r>    1.4788    0.0000 </r>
       <r>    2.0234    0.0000 </r>
       <r>    3.6782    0.0000 </r>
       <r>    4.4377    0.0000 </r>
       <r>    5.4768    0.0000 </r>
       <r>    5.5716    0.0000 </r>
       <r>    6.7063    0.0000 </r>
       <r>    7.4781    0.0000 </r>
       <r>    8.4737    0.0000 </r>
      </set>
      <set comment="kpoint 3">
       <r>  -22.0825    1.0000 </r>
       <r>  -10.4300    1.0000 </r>
       <r>   -6.5412    1.0000 </r>
       <r>   -6.3549    1.0000 </r>
       <r>   -0.1883    0.0000 </r>
       <r>    0.2226    0.0000 </r>
       <r>    0.7935    0.0000 </r>
       <r>    1.5871    0.0000 </r>
       <r>    2.1322    0.0000 </r>
       <r>    3.7863    0.0000 </r>
       <r>    4.5429    0.0000 </r>
       <r>    5.5229    0.0000 </r>
       <r>    5.9046    0.0000 </r>
       <r>    6.8123    0.0000 </r>
       <r>    7.5876    0.0000 </r>
       <r>    8.2007    0.0000 </r>
      </set>
      <set comment="kpoint 4">
       <r>  -21.9537    1.0000 </r>
       <r>  -10.2733    1.0000 </r>
       <r>   -7.0125    1.0000 </r>
       <r>   -6.6016    1.0000 </r>
       <r>   -0.0053    0.0000 </r>
       <r>    0.4010    0.0000 </r>
       <r>    0.9754    0.0000 </r>
       <r>    1.7673    0.0000 </r>
       <r>    2.3136    0.0000 </r>
       <r>    3.9663    0.0000 </r>
       <r>    4.7177    0.0000 </r>
       <r>    5.5718    0.0000 </r>
       <r>    6.4358    0.0000 </r>
       <r>    6.9884    0.0000 </r>
       <r>    7.7634    0.0000 </r>
       <r>    7.7692    0.0000 </r>
      </set>
      <set comment="kpoint 5">
       <r>  -21.7735    1.0000 </r>
       <r>  -10.0547    1.0000 </r>
       <r>   -7.6207    1.0000 </r>
       <r>   -6.9082    1.0000 </r>
       <r>    0.2509    0.0000 </r>
       <r>    0.6508    0.0000 </r>
       <r>    1.2299    0.0000 </r>
       <r>    2.0195    0.0000 </r>
       <r>    2.5676    0.0000 </r>
       <r>    4.2180    0.0000 </r>
       <r>    4.9595    0.0000 </r>
       <r>    5.6012    0.0000 </r>
       <r>    7.1371    0.0000 </r>
       <r>    7.1646    0.0000 </r>
       <r>    7.2536    0.0000 </r>
       <r>    8.0216    0.0000 </r>
      </set>
      <set comment="kpoint 6">
       <r>  -21.5424    1.0000 </r>
       <r>   -9.7754    1.0000 </r>
       <r>   -8.3310    1.0000 </r>
       <r>   -7.2493    1.0000 </r>
       <r>    0.5801    0.0000 </r>
       <r>    0.9718    0.0000 </r>
       <r>    1.5569    0.0000 </r>
       <r>    2.3431    0.0000 </r>
       <r>    2.8940    0.0000 </r>
       <r>    4.5405    0.0000 </r>
       <r>    5.2512    0.0000 </r>
       <r>    5.6146    0.0000 </r>
       <r>    6.4822    0.0000 </r>
       <r>    7.5550    0.0000 </r>
       <r>    7.9788    0.0000 </r>
       <r>    8.3439    0.0000 </r>
      </set>
      <set comment="kpoint 7">
       <r>  -21.2609    1.0000 </r>
       <r>   -9.4368    1.0000 </r>
       <r>   -9.1126    1.0000 </r>
       <r>   -7.6028    1.0000 </r>
       <r>    0.9825    0.0000 </r>
       <r>    1.3641    0.0000 </r>
       <r>    1.9560    0.0000 </r>
       <r>    2.7375    0.0000 </r>
       <r>    3.2927    0.0000 </r>
       <r>    4.9287    0.0000 </r>
       <r>    5.4344    0.0000 </r>
       <r>    5.6986    0.0000 </r>
       <r>    5.7706    0.0000 </r>
       <r>    7.9404    0.0000 </r>
       <r>    8.7357    0.0000 </r>
       <r>    8.9332    0.0000 </r>
      </set>
      <set comment="kpoint 8">
       <r>  -20.9295    1.0000 </r>
       <r>   -9.9398    1.0000 </r>
       <r>   -9.0412    1.0000 </r>
       <r>   -7.9512    1.0000 </r>
       <r>    1.4579    0.0000 </r>
       <r>    1.8271    0.0000 </r>
       <r>    2.4260    0.0000 </r>
       <r>    3.1991    0.0000 </r>
       <r>    3.7632    0.0000 </r>
       <r>    4.8152    0.0000 </r>
       <r>    5.3950    0.0000 </r>
       <r>    5.4245    0.0000 </r>
       <r>    6.1920    0.0000 </r>
       <r>    8.3941    0.0000 </r>
       <r>    9.1970    0.0000 </r>
       <r>    9.9741    0.0000 </r>
      </set>
      <set comment="kpoint 9">
       <r>  -20.5489    1.0000 </r>
       <r>  -10.7923    1.0000 </r>
       <r>   -8.5916    1.0000 </r>
       <r>   -8.2810    1.0000 </r>
       <r>    2.0061    0.0000 </r>
       <r>    2.3606    0.0000 </r>
       <r>    2.9590    0.0000 </r>
       <r>    3.6599    0.0000 </r>
       <r>    4.0041    0.0000 </r>
       <r>    4.3068    0.0000 </r>
       <r>    5.3070    0.0000 </r>
       <r>    5.9512    0.0000 </r>
       <r>    6.7178    0.0000 </r>
       <r>    8.9141    0.0000 </r>
       <r>    9.7275    0.0000 </r>
       <r>   11.0759    0.0000 </r>
      </set>
      <set comment="kpoint 10">
       <r>  -20.1201    1.0000 </r>
       <r>  -11.6538    1.0000 </r>
       <r>   -8.5819    1.0000 </r>
       <r>   -8.0929    1.0000 </r>
       <r>    2.6269    0.0000 </r>
       <r>    2.9179    0.0000 </r>
       <r>    2.9638    0.0000 </r>
       <r>    3.6204    0.0000 </r>
       <r>    4.3810    0.0000 </r>
       <r>    4.9033    0.0000 </r>
       <r>    5.2233    0.0000 </r>
       <r>    6.5574    0.0000 </r>
       <r>    7.3204    0.0000 </r>
       <r>    9.4973    0.0000 </r>
       <r>   10.3267    0.0000 </r>
       <r>   12.2112    0.0000 </r>
      </set>
      <set comment="kpoint 11">
       <r>  -19.6446    1.0000 </r>
       <r>  -12.5115    1.0000 </r>
       <r>   -8.8464    1.0000 </r>
       <r>   -7.5523    1.0000 </r>
       <r>    2.0111    0.0000 </r>
       <r>    3.3201    0.0000 </r>
       <r>    3.6347    0.0000 </r>
       <r>    4.2911    0.0000 </r>
       <r>    5.0439    0.0000 </r>
       <r>    5.0918    0.0000 </r>
       <r>    5.6327    0.0000 </r>
       <r>    7.2338    0.0000 </r>
       <r>    7.9950    0.0000 </r>
       <r>   10.1379    0.0000 </r>
       <r>   10.9930    0.0000 </r>
       <r>   12.8053    0.0000 </r>
      </set>
      <set comment="kpoint 12">
       <r>  -19.1242    1.0000 </r>
       <r>  -13.3545    1.0000 </r>
       <r>   -9.0690    1.0000 </r>
       <r>   -6.9824    1.0000 </r>
       <r>    1.1082    0.0000 </r>
       <r>    4.0845    0.0000 </r>
       <r>    4.3641    0.0000 </r>
       <r>    5.0111    0.0000 </r>
       <r>    5.0489    0.0000 </r>
       <r>    5.8002    0.0000 </r>
       <r>    6.3838    0.0000 </r>
       <r>    7.9780    0.0000 </r>
       <r>    8.7388    0.0000 </r>
       <r>   10.8213    0.0000 </r>
       <r>   11.7185    0.0000 </r>
       <r>   12.1744    0.0000 </r>
      </set>
      <set comment="kpoint 13">
       <r>  -18.5626    1.0000 </r>
       <r>  -14.1730    1.0000 </r>
       <r>   -9.2457    1.0000 </r>
       <r>   -6.4056    1.0000 </r>
       <r>    0.2597    0.0000 </r>
       <r>    4.8477    0.0000 </r>
       <r>    4.9355    0.0000 </r>
       <r>    5.2502    0.0000 </r>
       <r>    5.8744    0.0000 </r>
       <r>    6.6155    0.0000 </r>
       <r>    7.2120    0.0000 </r>
       <r>    8.7862    0.0000 </r>
       <r>    9.5481    0.0000 </r>
       <r>   11.1932    0.0000 </r>
       <r>   11.4456    0.0000 </r>
       <r>   11.6251    0.0000 </r>
      </set>
      <set comment="kpoint 14">
       <r>  -17.9676    1.0000 </r>
       <r>  -14.9545    1.0000 </r>
       <r>   -9.3738    1.0000 </r>
       <r>   -5.8654    1.0000 </r>
       <r>   -0.4807    0.0000 </r>
       <r>    4.8381    0.0000 </r>
       <r>    5.8253    0.0000 </r>
       <r>    6.0931    0.0000 </r>
       <r>    6.7694    0.0000 </r>
       <r>    7.4945    0.0000 </r>
       <r>    8.1095    0.0000 </r>
       <r>    9.6467    0.0000 </r>
       <r>   10.1045    0.0000 </r>
       <r>   10.3220    0.0000 </r>
       <r>   10.4390    0.0000 </r>
       <r>   10.9823    0.0000 </r>
      </set>
      <set comment="kpoint 15">
       <r>  -17.3686    1.0000 </r>
       <r>  -15.6666    1.0000 </r>
       <r>   -9.4514    1.0000 </r>
       <r>   -5.4466    1.0000 </r>
       <r>   -1.0219    0.0000 </r>
       <r>    4.8083    0.0000 </r>
       <r>    6.7797    0.0000 </r>
       <r>    7.0252    0.0000 </r>
       <r>    7.7256    0.0000 </r>
       <r>    8.4169    0.0000 </r>
       <r>    8.9855    0.0000 </r>
       <r>    9.0695    0.0000 </r>
       <r>    9.2200    0.0000 </r>
       <r>    9.8584    0.0000 </r>
       <r>   10.4425    0.0000 </r>
       <r>   10.7638    0.0000 </r>
      </set>
      <set comment="kpoint 16">
       <r>  -16.9907    1.0000 </r>
       <r>  -16.0822    1.0000 </r>
       <r>   -9.4773    1.0000 </r>
       <r>   -5.2805    1.0000 </r>
       <r>   -1.2291    0.0000 </r>
       <r>    4.7975    0.0000 </r>
       <r>    7.5288    0.0000 </r>
       <r>    7.9084    0.0000 </r>
       <r>    8.0734    0.0000 </r>
       <r>    8.3549    0.0000 </r>
       <r>    8.6502    0.0000 </r>
       <r>    8.7800    0.0000 </r>
       <r>    9.3487    0.0000 </r>
       <r>    9.6617    0.0000 </r>
       <r>   10.0135    0.0000 </r>
       <r>   10.3261    0.0000 </r>
      </set>
      <set comment="kpoint 17">
       <r>  -22.1084    1.0000 </r>
       <r>  -10.4615    1.0000 </r>
       <r>   -6.4390    1.0000 </r>
       <r>   -6.3061    1.0000 </r>
       <r>   -0.2249    0.0000 </r>
       <r>    0.1869    0.0000 </r>
       <r>    0.7571    0.0000 </r>
       <r>    1.5510    0.0000 </r>
       <r>    2.0959    0.0000 </r>
       <r>    3.7503    0.0000 </r>
       <r>    4.5079    0.0000 </r>
       <r>    5.5187    0.0000 </r>
       <r>    5.7851    0.0000 </r>
       <r>    6.7770    0.0000 </r>
       <r>    7.5512    0.0000 </r>
       <r>    8.2908    0.0000 </r>
      </set>
      <set comment="kpoint 18">
       <r>  -22.0052    1.0000 </r>
       <r>  -10.3359    1.0000 </r>
       <r>   -6.8158    1.0000 </r>
       <r>   -6.5193    1.0000 </r>
       <r>   -0.0785    0.0000 </r>
       <r>    0.3297    0.0000 </r>
       <r>    0.9026    0.0000 </r>
       <r>    1.6952    0.0000 </r>
       <r>    2.2411    0.0000 </r>
       <r>    3.8943    0.0000 </r>
       <r>    4.6481    0.0000 </r>
       <r>    5.5884    0.0000 </r>
       <r>    6.1914    0.0000 </r>
       <r>    6.9182    0.0000 </r>
       <r>    7.6969    0.0000 </r>
       <r>    7.9361    0.0000 </r>
      </set>
      <set comment="kpoint 19">
       <r>  -21.8507    1.0000 </r>
       <r>  -10.1482    1.0000 </r>
       <r>   -7.3449    1.0000 </r>
       <r>   -6.8066    1.0000 </r>
       <r>    0.1411    0.0000 </r>
       <r>    0.5438    0.0000 </r>
       <r>    1.1209    0.0000 </r>
       <r>    1.9114    0.0000 </r>
       <r>    2.4588    0.0000 </r>
       <r>    4.1102    0.0000 </r>
       <r>    4.8576    0.0000 </r>
       <r>    5.6508    0.0000 </r>
       <r>    6.7738    0.0000 </r>
       <r>    7.1282    0.0000 </r>
       <r>    7.4301    0.0000 </r>
       <r>    7.9140    0.0000 </r>
      </set>
      <set comment="kpoint 20">
       <r>  -21.6451    1.0000 </r>
       <r>   -9.8993    1.0000 </r>
       <r>   -7.9943    1.0000 </r>
       <r>   -7.1404    1.0000 </r>
       <r>    0.4338    0.0000 </r>
       <r>    0.8292    0.0000 </r>
       <r>    1.4117    0.0000 </r>
       <r>    2.1994    0.0000 </r>
       <r>    2.7491    0.0000 </r>
       <r>    4.3975    0.0000 </r>
       <r>    5.1313    0.0000 </r>
       <r>    5.6848    0.0000 </r>
       <r>    6.7896    0.0000 </r>
       <r>    7.4137    0.0000 </r>
       <r>    7.5077    0.0000 </r>
       <r>    8.2017    0.0000 </r>
      </set>
      <set comment="kpoint 21">
       <r>  -21.3888    1.0000 </r>
       <r>   -9.5903    1.0000 </r>
       <r>   -8.7323    1.0000 </r>
       <r>   -7.4959    1.0000 </r>
       <r>    0.7996    0.0000 </r>
       <r>    1.1859    0.0000 </r>
       <r>    1.7747    0.0000 </r>
       <r>    2.5585    0.0000 </r>
       <r>    3.1118    0.0000 </r>
       <r>    4.7546    0.0000 </r>
       <r>    5.4301    0.0000 </r>
       <r>    5.7211    0.0000 </r>
       <r>    6.0511    0.0000 </r>
       <r>    7.7641    0.0000 </r>
       <r>    8.3635    0.0000 </r>
       <r>    8.5609    0.0000 </r>
      </set>
      <set comment="kpoint 22">
       <r>  -21.0823    1.0000 </r>
       <r>   -9.5305    1.0000 </r>
       <r>   -9.2230    1.0000 </r>
       <r>   -7.8531    1.0000 </r>
       <r>    1.2385    0.0000 </r>
       <r>    1.6136    0.0000 </r>
       <r>    2.2095    0.0000 </r>
       <r>    2.9874    0.0000 </r>
       <r>    3.5466    0.0000 </r>
       <r>    5.1165    0.0000 </r>
       <r>    5.3004    0.0000 </r>
       <r>    5.5225    0.0000 </r>
       <r>    5.9968    0.0000 </r>
       <r>    8.1834    0.0000 </r>
       <r>    8.9824    0.0000 </r>
       <r>    9.3212    0.0000 </r>
      </set>
      <set comment="kpoint 23">
       <r>  -20.7263    1.0000 </r>
       <r>  -10.3657    1.0000 </r>
       <r>   -8.8001    1.0000 </r>
       <r>   -8.1968    1.0000 </r>
       <r>    1.7503    0.0000 </r>
       <r>    2.1120    0.0000 </r>
       <r>    2.7135    0.0000 </r>
       <r>    3.4756    0.0000 </r>
       <r>    4.0518    0.0000 </r>
       <r>    4.3569    0.0000 </r>
       <r>    5.4595    0.0000 </r>
       <r>    5.7008    0.0000 </r>
       <r>    6.4731    0.0000 </r>
       <r>    8.6697    0.0000 </r>
       <r>    9.4793    0.0000 </r>
       <r>   10.3347    0.0000 </r>
      </set>
      <set comment="kpoint 24">
       <r>  -20.3216    1.0000 </r>
       <r>  -11.2194    1.0000 </r>
       <r>   -8.5154    1.0000 </r>
       <r>   -8.3255    1.0000 </r>
       <r>    2.3348    0.0000 </r>
       <r>    2.6806    0.0000 </r>
       <r>    3.2089    0.0000 </r>
       <r>    3.4672    0.0000 </r>
       <r>    4.1079    0.0000 </r>
       <r>    4.6295    0.0000 </r>
       <r>    5.3694    0.0000 </r>
       <r>    6.2704    0.0000 </r>
       <r>    7.0373    0.0000 </r>
       <r>    9.2203    0.0000 </r>
       <r>   10.0443    0.0000 </r>
       <r>   11.3608    0.0000 </r>
      </set>
      <set comment="kpoint 25">
       <r>  -19.8694    1.0000 </r>
       <r>  -12.0765    1.0000 </r>
       <r>   -8.8004    1.0000 </r>
       <r>   -7.8048    1.0000 </r>
       <r>    2.4532    0.0000 </r>
       <r>    2.9919    0.0000 </r>
       <r>    3.3182    0.0000 </r>
       <r>    3.9676    0.0000 </r>
       <r>    4.7306    0.0000 </r>
       <r>    5.1863    0.0000 </r>
       <r>    5.3645    0.0000 </r>
       <r>    6.9117    0.0000 </r>
       <r>    7.6759    0.0000 </r>
       <r>    9.8306    0.0000 </r>
       <r>   10.6772    0.0000 </r>
       <r>   12.2509    0.0000 </r>
      </set>
      <set comment="kpoint 26">
       <r>  -19.3714    1.0000 </r>
       <r>  -12.9252    1.0000 </r>
       <r>   -9.0455    1.0000 </r>
       <r>   -7.2477    1.0000 </r>
       <r>    1.5430    0.0000 </r>
       <r>    3.7209    0.0000 </r>
       <r>    4.0219    0.0000 </r>
       <r>    4.6855    0.0000 </r>
       <r>    5.1556    0.0000 </r>
       <r>    5.4432    0.0000 </r>
       <r>    6.0254    0.0000 </r>
       <r>    7.6215    0.0000 </r>
       <r>    8.3852    0.0000 </r>
       <r>   10.4907    0.0000 </r>
       <r>   11.3748    0.0000 </r>
       <r>   12.4099    0.0000 </r>
      </set>
      <set comment="kpoint 27">
       <r>  -18.8301    1.0000 </r>
       <r>  -13.7551    1.0000 </r>
       <r>   -9.2463    1.0000 </r>
       <r>   -6.6706    1.0000 </r>
       <r>    0.6652    0.0000 </r>
       <r>    4.5198    0.0000 </r>
       <r>    4.7619    0.0000 </r>
       <r>    5.1142    0.0000 </r>
       <r>    5.4777    0.0000 </r>
       <r>    6.2235    0.0000 </r>
       <r>    6.8163    0.0000 </r>
       <r>    8.3969    0.0000 </r>
       <r>    9.1622    0.0000 </r>
       <r>   11.1661    0.0000 </r>
       <r>   11.6836    0.0000 </r>
       <r>   12.1391    0.0000 </r>
      </set>
      <set comment="kpoint 28">
       <r>  -18.2506    1.0000 </r>
       <r>  -14.5555    1.0000 </r>
       <r>   -9.3994    1.0000 </r>
       <r>   -6.1043    1.0000 </r>
       <r>   -0.1353    0.0000 </r>
       <r>    4.9672    0.0000 </r>
       <r>    5.3946    0.0000 </r>
       <r>    5.6820    0.0000 </r>
       <r>    6.3386    0.0000 </r>
       <r>    7.0706    0.0000 </r>
       <r>    7.6797    0.0000 </r>
       <r>    9.2313    0.0000 </r>
       <r>    9.9987    0.0000 </r>
       <r>   10.6726    0.0000 </r>
       <r>   10.9858    0.0000 </r>
       <r>   11.4284    0.0000 </r>
      </set>
      <set comment="kpoint 29">
       <r>  -17.6470    1.0000 </r>
       <r>  -15.3083    1.0000 </r>
       <r>   -9.5025    1.0000 </r>
       <r>   -5.6101    1.0000 </r>
       <r>   -0.7896    0.0000 </r>
       <r>    4.9351    0.0000 </r>
       <r>    6.3253    0.0000 </r>
       <r>    6.5776    0.0000 </r>
       <r>    7.2645    0.0000 </r>
       <r>    7.9752    0.0000 </r>
       <r>    8.6075    0.0000 </r>
       <r>    9.5796    0.0000 </r>
       <r>    9.7801    0.0000 </r>
       <r>   10.0669    0.0000 </r>
       <r>   10.4766    0.0000 </r>
       <r>   10.8663    0.0000 </r>
      </set>
      <set comment="kpoint 30">
       <r>  -17.0948    1.0000 </r>
       <r>  -15.9358    1.0000 </r>
       <r>   -9.5545    1.0000 </r>
       <r>   -5.2997    1.0000 </r>
       <r>   -1.1813    0.0000 </r>
       <r>    4.9143    0.0000 </r>
       <r>    7.2741    0.0000 </r>
       <r>    7.5310    0.0000 </r>
       <r>    8.2389    0.0000 </r>
       <r>    8.5074    0.0000 </r>
       <r>    8.6837    0.0000 </r>
       <r>    8.8749    0.0000 </r>
       <r>    9.3982    0.0000 </r>
       <r>    9.5930    0.0000 </r>
       <r>   10.0903    0.0000 </r>
       <r>   10.7418    0.0000 </r>
      </set>
      <set comment="kpoint 31">
       <r>  -21.8764    1.0000 </r>
       <r>  -10.1794    1.0000 </r>
       <r>   -7.2340    1.0000 </r>
       <r>   -6.7895    1.0000 </r>
       <r>    0.1045    0.0000 </r>
       <r>    0.5081    0.0000 </r>
       <r>    1.0845    0.0000 </r>
       <r>    1.8754    0.0000 </r>
       <r>    2.4226    0.0000 </r>
       <r>    4.0743    0.0000 </r>
       <r>    4.8237    0.0000 </r>
       <r>    5.7128    0.0000 </r>
       <r>    6.5998    0.0000 </r>
       <r>    7.0943    0.0000 </r>
       <r>    7.5128    0.0000 </r>
       <r>    7.8783    0.0000 </r>
      </set>
      <set comment="kpoint 32">
       <r>  -21.6964    1.0000 </r>
       <r>   -9.9613    1.0000 </r>
       <r>   -7.7802    1.0000 </r>
       <r>   -7.1285    1.0000 </r>
       <r>    0.3606    0.0000 </r>
       <r>    0.7580    0.0000 </r>
       <r>    1.3390    0.0000 </r>
       <r>    2.1275    0.0000 </r>
       <r>    2.6767    0.0000 </r>
       <r>    4.3259    0.0000 </r>
       <r>    5.0685    0.0000 </r>
       <r>    5.8361    0.0000 </r>
       <r>    6.9519    0.0000 </r>
       <r>    7.1351    0.0000 </r>
       <r>    7.3408    0.0000 </r>
       <r>    8.1308    0.0000 </r>
      </set>
      <set comment="kpoint 33">
       <r>  -21.4656    1.0000 </r>
       <r>   -9.6825    1.0000 </r>
       <r>   -8.4344    1.0000 </r>
       <r>   -7.4998    1.0000 </r>
       <r>    0.6899    0.0000 </r>
       <r>    1.0791    0.0000 </r>
       <r>    1.6659    0.0000 </r>
       <r>    2.4511    0.0000 </r>
       <r>    3.0033    0.0000 </r>
       <r>    4.6486    0.0000 </r>
       <r>    5.3765    0.0000 </r>
       <r>    5.9152    0.0000 </r>
       <r>    6.2784    0.0000 </r>
       <r>    7.6563    0.0000 </r>
       <r>    7.8024    0.0000 </r>
       <r>    8.4539    0.0000 </r>
      </set>
      <set comment="kpoint 34">
       <r>  -21.1843    1.0000 </r>
       <r>   -9.3447    1.0000 </r>
       <r>   -9.1708    1.0000 </r>
       <r>   -7.8772    1.0000 </r>
       <r>    1.0922    0.0000 </r>
       <r>    1.4715    0.0000 </r>
       <r>    2.0650    0.0000 </r>
       <r>    2.8455    0.0000 </r>
       <r>    3.4023    0.0000 </r>
       <r>    5.0366    0.0000 </r>
       <r>    5.5214    0.0000 </r>
       <r>    5.6980    0.0000 </r>
       <r>    5.9885    0.0000 </r>
       <r>    8.0402    0.0000 </r>
       <r>    8.5823    0.0000 </r>
       <r>    8.8507    0.0000 </r>
      </set>
      <set comment="kpoint 35">
       <r>  -20.8533    1.0000 </r>
       <r>   -9.9637    1.0000 </r>
       <r>   -8.9498    1.0000 </r>
       <r>   -8.2431    1.0000 </r>
       <r>    1.5675    0.0000 </r>
       <r>    1.9347    0.0000 </r>
       <r>    2.5350    0.0000 </r>
       <r>    3.3074    0.0000 </r>
       <r>    3.8732    0.0000 </r>
       <r>    4.6781    0.0000 </r>
       <r>    5.5188    0.0000 </r>
       <r>    5.7865    0.0000 </r>
       <r>    6.3156    0.0000 </r>
       <r>    8.4910    0.0000 </r>
       <r>    9.2886    0.0000 </r>
       <r>    9.4761    0.0000 </r>
      </set>
      <set comment="kpoint 36">
       <r>  -20.4732    1.0000 </r>
       <r>  -10.7907    1.0000 </r>
       <r>   -8.5850    1.0000 </r>
       <r>   -8.5011    1.0000 </r>
       <r>    2.1157    0.0000 </r>
       <r>    2.4683    0.0000 </r>
       <r>    3.0673    0.0000 </r>
       <r>    3.6990    0.0000 </r>
       <r>    3.9572    0.0000 </r>
       <r>    4.4168    0.0000 </r>
       <r>    5.7283    0.0000 </r>
       <r>    6.0518    0.0000 </r>
       <r>    6.8293    0.0000 </r>
       <r>    9.0062    0.0000 </r>
       <r>    9.8277    0.0000 </r>
       <r>   10.3796    0.0000 </r>
      </set>
      <set comment="kpoint 37">
       <r>  -20.0451    1.0000 </r>
       <r>  -11.6333    1.0000 </r>
       <r>   -8.8941    1.0000 </r>
       <r>   -8.0032    1.0000 </r>
       <r>    2.7364    0.0000 </r>
       <r>    2.8484    0.0000 </r>
       <r>    3.0718    0.0000 </r>
       <r>    3.7162    0.0000 </r>
       <r>    4.4773    0.0000 </r>
       <r>    5.0264    0.0000 </r>
       <r>    5.6448    0.0000 </r>
       <r>    6.6572    0.0000 </r>
       <r>    7.4290    0.0000 </r>
       <r>    9.5811    0.0000 </r>
       <r>   10.4274    0.0000 </r>
[...]
       </set>
       <set comment="band 12">
        <r>  0.0067  0.0086  0.0011  0.0077  0.0000  0.0000  0.0000  0.0000  0.0000 </r>
        <r>  0.0067  0.0086  0.0011  0.0077  0.0000  0.0000  0.0000  0.0000  0.0000 </r>
       </set>
       <set comment="band 13">
        <r>  0.0263  0.1060  0.0000  0.0312  0.0000  0.0000  0.0000  0.0000  0.0000 </r>
        <r>  0.0263  0.1060  0.0000  0.0312  0.0000  0.0000  0.0000  0.0000  0.0000 </r>
       </set>
       <set comment="band 14">
        <r>  0.0000  0.0000  0.0079  0.0000  0.0000  0.0000  0.0000  0.0000  0.0000 </r>
        <r>  0.0000  0.0000  0.0079  0.0000  0.0000  0.0000  0.0000  0.0000  0.0000 </r>
       </set>
       <set comment="band 15">
        <r>  0.0003  0.0003  0.0000  0.0034  0.0000  0.0000  0.0000  0.0000  0.0000 </r>
        <r>  0.0003  0.0003  0.0000  0.0034  0.0000  0.0000  0.0000  0.0000  0.0000 </r>
       </set>
       <set comment="band 16">
        <r>  0.0005  0.0001  0.0000  0.0126  0.0000  0.0000  0.0000  0.0000  0.0000 </r>
        <r>  0.0005  0.0001  0.0000  0.0126  0.0000  0.0000  0.0000  0.0000  0.0000 </r>
       </set>
      </set>
      <set comment="kpoint 87">
       <set comment="band 1">
        <r>  0.2559  0.0122  0.0000  0.0992  0.0000  0.0000  0.0000  0.0000  0.0000 </r>
        <r>  0.2559  0.0122  0.0000  0.0992  0.0000  0.0000  0.0000  0.0000  0.0000 </r>
       </set>
       <set comment="band 2">
        <r>  0.2079  0.0676  0.0000  0.0954  0.0000  0.0000  0.0000  0.0000  0.0000 </r>
        <r>  0.2079  0.0676  0.0000  0.0954  0.0000  0.0000  0.0000  0.0000  0.0000 </r>
       </set>
       <set comment="band 3">
        <r>  0.0355  0.2174  0.0000  0.0903  0.0000  0.0000  0.0000  0.0000  0.0000 </r>
        <r>  0.0355  0.2174  0.0000  0.0903  0.0000  0.0000  0.0000  0.0000  0.0000 </r>
       </set>
       <set comment="band 4">
        <r>  0.0000  0.0000  0.2558  0.0000  0.0000  0.0000  0.0000  0.0000  0.0000 </r>
        <r>  0.0000  0.0000  0.2558  0.0000  0.0000  0.0000  0.0000  0.0000  0.0000 </r>
       </set>
       <set comment="band 5">
        <r>  0.0000  0.0000  0.2631  0.0000  0.0000  0.0000  0.0000  0.0000  0.0000 </r>
        <r>  0.0000  0.0000  0.2631  0.0000  0.0000  0.0000  0.0000  0.0000  0.0000 </r>
       </set>
       <set comment="band 6">
        <r>  0.0000  0.0000  0.0115  0.0000  0.0000  0.0000  0.0000  0.0000  0.0000 </r>
        <r>  0.0000  0.0000  0.0115  0.0000  0.0000  0.0000  0.0000  0.0000  0.0000 </r>
       </set>
       <set comment="band 7">
        <r>  0.0002  0.0035  0.0000  0.0145  0.0000  0.0000  0.0000  0.0000  0.0000 </r>
        <r>  0.0002  0.0035  0.0000  0.0145  0.0000  0.0000  0.0000  0.0000  0.0000 </r>
       </set>
       <set comment="band 8">
        <r>  0.0002  0.0035  0.0000  0.0132  0.0000  0.0000  0.0000  0.0000  0.0000 </r>
        <r>  0.0002  0.0035  0.0000  0.0132  0.0000  0.0000  0.0000  0.0000  0.0000 </r>
       </set>
       <set comment="band 9">
        <r>  0.0017  0.0031  0.0009  0.0022  0.0000  0.0000  0.0000  0.0000  0.0000 </r>
        <r>  0.0017  0.0031  0.0009  0.0022  0.0000  0.0000  0.0000  0.0000  0.0000 </r>
       </set>
       <set comment="band 10">
        <r>  0.0606  0.0966  0.0000  0.0675  0.0000  0.0000  0.0000  0.0000  0.0000 </r>
        <r>  0.0606  0.0966  0.0000  0.0675  0.0000  0.0000  0.0000  0.0000  0.0000 </r>
       </set>
       <set comment="band 11">
        <r>  0.0076  0.0712  0.0000  0.0086  0.0000  0.0000  0.0000  0.0000  0.0000 </r>
        <r>  0.0076  0.0712  0.0000  0.0086  0.0000  0.0000  0.0000  0.0000  0.0000 </r>
       </set>
       <set comment="band 12">
        <r>  0.0002  0.0002  0.0066  0.0010  0.0000  0.0000  0.0000  0.0000  0.0000 </r>
        <r>  0.0002  0.0002  0.0066  0.0010  0.0000  0.0000  0.0000  0.0000  0.0000 </r>
       </set>
       <set comment="band 13">
        <r>  0.0005  0.0007  0.0008  0.0039  0.0000  0.0000  0.0000  0.0000  0.0000 </r>
        <r>  0.0005  0.0007  0.0008  0.0039  0.0000  0.0000  0.0000  0.0000  0.0000 </r>
       </set>
       <set comment="band 14">
        <r>  0.0002  0.0006  0.0005  0.0021  0.0000  0.0000  0.0000  0.0000  0.0000 </r>
        <r>  0.0002  0.0006  0.0005  0.0021  0.0000  0.0000  0.0000  0.0000  0.0000 </r>
       </set>
       <set comment="band 15">
        <r>  0.0000  0.0000  0.0035  0.0005  0.0000  0.0000  0.0000  0.0000  0.0000 </r>
        <r>  0.0000  0.0000  0.0035  0.0005  0.0000  0.0000  0.0000  0.0000  0.0000 </r>
       </set>
       <set comment="band 16">
        <r>  0.0000  0.0000  0.0085  0.0008  0.0000  0.0000  0.0000  0.0000  0.0000 </r>
        <r>  0.0000  0.0001  0.0085  0.0007  0.0000  0.0000  0.0000  0.0000  0.0000 </r>
       </set>
      </set>
      <set comment="kpoint 88">
       <set comment="band 1">
        <r>  0.2705  0.0464  0.0000  0.0579  0.0000  0.0000  0.0000  0.0000  0.0000 </r>
        <r>  0.2705  0.0464  0.0000  0.0579  0.0000  0.0000  0.0000  0.0000  0.0000 </r>
       </set>
       <set comment="band 2">
        <r>  0.1916  0.0447  0.0000  0.1263  0.0000  0.0000  0.0000  0.0000  0.0000 </r>
        <r>  0.1916  0.0447  0.0000  0.1263  0.0000  0.0000  0.0000  0.0000  0.0000 </r>
       </set>
       <set comment="band 3">
        <r>  0.0383  0.2038  0.0000  0.1015  0.0000  0.0000  0.0000  0.0000  0.0000 </r>
        <r>  0.0383  0.2038  0.0000  0.1015  0.0000  0.0000  0.0000  0.0000  0.0000 </r>
       </set>
       <set comment="band 4">
        <r>  0.0000  0.0000  0.2588  0.0000  0.0000  0.0000  0.0000  0.0000  0.0000 </r>
        <r>  0.0000  0.0000  0.2588  0.0000  0.0000  0.0000  0.0000  0.0000  0.0000 </r>
       </set>
       <set comment="band 5">
        <r>  0.0000  0.0000  0.2603  0.0000  0.0000  0.0000  0.0000  0.0000  0.0000 </r>
        <r>  0.0000  0.0000  0.2603  0.0000  0.0000  0.0000  0.0000  0.0000  0.0000 </r>
       </set>
       <set comment="band 6">
        <r>  0.0000  0.0000  0.0086  0.0000  0.0000  0.0000  0.0000  0.0000  0.0000 </r>
        <r>  0.0000  0.0000  0.0086  0.0000  0.0000  0.0000  0.0000  0.0000  0.0000 </r>
       </set>
       <set comment="band 7">
        <r>  0.0001  0.0173  0.0000  0.0189  0.0000  0.0000  0.0000  0.0000  0.0000 </r>
        <r>  0.0001  0.0173  0.0000  0.0189  0.0000  0.0000  0.0000  0.0000  0.0000 </r>
       </set>
       <set comment="band 8">
        <r>  0.0001  0.0103  0.0000  0.0111  0.0000  0.0000  0.0000  0.0000  0.0000 </r>
        <r>  0.0001  0.0103  0.0000  0.0111  0.0000  0.0000  0.0000  0.0000  0.0000 </r>
       </set>
       <set comment="band 9">
        <r>  0.0198  0.0442  0.0000  0.0576  0.0000  0.0000  0.0000  0.0000  0.0000 </r>
        <r>  0.0198  0.0442  0.0000  0.0576  0.0000  0.0000  0.0000  0.0000  0.0000 </r>
       </set>
       <set comment="band 10">
        <r>  0.0438  0.0687  0.0000  0.0254  0.0000  0.0000  0.0000  0.0000  0.0000 </r>
        <r>  0.0438  0.0687  0.0000  0.0254  0.0000  0.0000  0.0000  0.0000  0.0000 </r>
       </set>
       <set comment="band 11">
        <r>  0.0022  0.0038  0.0000  0.0014  0.0000  0.0000  0.0000  0.0000  0.0000 </r>
        <r>  0.0022  0.0038  0.0000  0.0014  0.0000  0.0000  0.0000  0.0000  0.0000 </r>
       </set>
       <set comment="band 12">
        <r>  0.0000  0.0002  0.0046  0.0002  0.0000  0.0000  0.0000  0.0000  0.0000 </r>
        <r>  0.0000  0.0002  0.0046  0.0002  0.0000  0.0000  0.0000  0.0000  0.0000 </r>
       </set>
       <set comment="band 13">
        <r>  0.0000  0.0000  0.0006  0.0001  0.0000  0.0000  0.0000  0.0000  0.0000 </r>
        <r>  0.0000  0.0000  0.0006  0.0001  0.0000  0.0000  0.0000  0.0000  0.0000 </r>
       </set>
       <set comment="band 14">
        <r>  0.0001  0.0010  0.0116  0.0010  0.0000  0.0000  0.0000  0.0000  0.0000 </r>
        <r>  0.0001  0.0010  0.0116  0.0010  0.0000  0.0000  0.0000  0.0000  0.0000 </r>
       </set>
       <set comment="band 15">
        <r>  0.0025  0.0121  0.0010  0.0118  0.0000  0.0000  0.0000  0.0000  0.0000 </r>
        <r>  0.0025  0.0121  0.0010  0.0118  0.0000  0.0000  0.0000  0.0000  0.0000 </r>
       </set>
       <set comment="band 16">
        <r>  0.0000  0.0024  0.0000  0.0066  0.0000  0.0000  0.0000  0.0000  0.0000 </r>
        <r>  0.0000  0.0024  0.0000  0.0066  0.0000  0.0000  0.0000  0.0000  0.0000 </r>
       </set>
      </set>
      <set comment="kpoint 89">
       <set comment="band 1">
        <r>  0.2520  0.0108  0.0000  0.1035  0.0000  0.0000  0.0000  0.0000  0.0000 </r>
        <r>  0.2520  0.0108  0.0000  0.1035  0.0000  0.0000  0.0000  0.0000  0.0000 </r>
       </set>
       <set comment="band 2">
        <r>  0.2304  0.0609  0.0000  0.0884  0.0000  0.0000  0.0000  0.0000  0.0000 </r>
        <r>  0.2304  0.0609  0.0000  0.0884  0.0000  0.0000  0.0000  0.0000  0.0000 </r>
       </set>
       <set comment="band 3">
        <r>  0.0182  0.2239  0.0000  0.0927  0.0000  0.0000  0.0000  0.0000  0.0000 </r>
        <r>  0.0182  0.2239  0.0000  0.0927  0.0000  0.0000  0.0000  0.0000  0.0000 </r>
       </set>
       <set comment="band 4">
        <r>  0.0000  0.0000  0.2551  0.0000  0.0000  0.0000  0.0000  0.0000  0.0000 </r>
        <r>  0.0000  0.0000  0.2551  0.0000  0.0000  0.0000  0.0000  0.0000  0.0000 </r>
       </set>
       <set comment="band 5">
        <r>  0.0000  0.0000  0.2656  0.0000  0.0000  0.0000  0.0000  0.0000  0.0000 </r>
        <r>  0.0000  0.0000  0.2656  0.0000  0.0000  0.0000  0.0000  0.0000  0.0000 </r>
       </set>
       <set comment="band 6">
        <r>  0.0000  0.0000  0.0087  0.0000  0.0000  0.0000  0.0000  0.0000  0.0000 </r>
        <r>  0.0000  0.0000  0.0087  0.0000  0.0000  0.0000  0.0000  0.0000  0.0000 </r>
       </set>
       <set comment="band 7">
        <r>  0.0001  0.0032  0.0000  0.0149  0.0000  0.0000  0.0000  0.0000  0.0000 </r>
        <r>  0.0001  0.0032  0.0000  0.0149  0.0000  0.0000  0.0000  0.0000  0.0000 </r>
       </set>
       <set comment="band 8">
        <r>  0.0001  0.0029  0.0000  0.0126  0.0000  0.0000  0.0000  0.0000  0.0000 </r>
        <r>  0.0001  0.0029  0.0000  0.0126  0.0000  0.0000  0.0000  0.0000  0.0000 </r>
       </set>
       <set comment="band 9">
        <r>  0.0000  0.0001  0.0007  0.0002  0.0000  0.0000  0.0000  0.0000  0.0000 </r>
        <r>  0.0000  0.0001  0.0007  0.0002  0.0000  0.0000  0.0000  0.0000  0.0000 </r>
       </set>
       <set comment="band 10">
        <r>  0.0414  0.0848  0.0000  0.0797  0.0000  0.0000  0.0000  0.0000  0.0000 </r>
        <r>  0.0414  0.0848  0.0000  0.0797  0.0000  0.0000  0.0000  0.0000  0.0000 </r>
       </set>
       <set comment="band 11">
        <r>  0.0168  0.1041  0.0002  0.0087  0.0000  0.0000  0.0000  0.0000  0.0000 </r>
        <r>  0.0168  0.1041  0.0002  0.0087  0.0000  0.0000  0.0000  0.0000  0.0000 </r>
       </set>
       <set comment="band 12">
        <r>  0.0015  0.0072  0.0055  0.0001  0.0000  0.0000  0.0000  0.0000  0.0000 </r>
        <r>  0.0015  0.0072  0.0055  0.0001  0.0000  0.0000  0.0000  0.0000  0.0000 </r>
       </set>
       <set comment="band 13">
        <r>  0.0015  0.0054  0.0010  0.0035  0.0000  0.0000  0.0000  0.0000  0.0000 </r>
        <r>  0.0015  0.0054  0.0010  0.0035  0.0000  0.0000  0.0000  0.0000  0.0000 </r>
       </set>
       <set comment="band 14">
        <r>  0.0002  0.0002  0.0000  0.0001  0.0000  0.0000  0.0000  0.0000  0.0000 </r>
        <r>  0.0002  0.0002  0.0000  0.0001  0.0000  0.0000  0.0000  0.0000  0.0000 </r>
       </set>
       <set comment="band 15">
        <r>  0.0004  0.0008  0.0001  0.0004  0.0000  0.0000  0.0000  0.0000  0.0000 </r>
        <r>  0.0004  0.0008  0.0001  0.0004  0.0000  0.0000  0.0000  0.0000  0.0000 </r>
       </set>
       <set comment="band 16">
        <r>  0.0000  0.0001  0.0103  0.0007  0.0000  0.0000  0.0000  0.0000  0.0000 </r>
        <r>  0.0000  0.0001  0.0104  0.0007  0.0000  0.0000  0.0000  0.0000  0.0000 </r>
       </set>
      </set>
      <set comment="kpoint 90">
       <set comment="band 1">
        <r>  0.2565  0.0279  0.0000  0.0887  0.0000  0.0000  0.0000  0.0000  0.0000 </r>
        <r>  0.2565  0.0279  0.0000  0.0887  0.0000  0.0000  0.0000  0.0000  0.0000 </r>
       </set>
       <set comment="band 2">
        <r>  0.2322  0.0605  0.0000  0.0827  0.0000  0.0000  0.0000  0.0000  0.0000 </r>
        <r>  0.2322  0.0605  0.0000  0.0827  0.0000  0.0000  0.0000  0.0000  0.0000 </r>
       </set>
       <set comment="band 3">
        <r>  0.0142  0.2035  0.0000  0.1138  0.0000  0.0000  0.0000  0.0000  0.0000 </r>
        <r>  0.0142  0.2035  0.0000  0.1138  0.0000  0.0000  0.0000  0.0000  0.0000 </r>
       </set>
       <set comment="band 4">
        <r>  0.0000  0.0000  0.2591  0.0000  0.0000  0.0000  0.0000  0.0000  0.0000 </r>
        <r>  0.0000  0.0000  0.2591  0.0000  0.0000  0.0000  0.0000  0.0000  0.0000 </r>
       </set>
       <set comment="band 5">
        <r>  0.0000  0.0000  0.2629  0.0000  0.0000  0.0000  0.0000  0.0000  0.0000 </r>
        <r>  0.0000  0.0000  0.2629  0.0000  0.0000  0.0000  0.0000  0.0000  0.0000 </r>
       </set>
       <set comment="band 6">
        <r>  0.0000  0.0000  0.0029  0.0000  0.0000  0.0000  0.0000  0.0000  0.0000 </r>
        <r>  0.0000  0.0000  0.0029  0.0000  0.0000  0.0000  0.0000  0.0000  0.0000 </r>
       </set>
       <set comment="band 7">
        <r>  0.0007  0.0153  0.0000  0.0378  0.0000  0.0000  0.0000  0.0000  0.0000 </r>
        <r>  0.0007  0.0153  0.0000  0.0378  0.0000  0.0000  0.0000  0.0000  0.0000 </r>
       </set>
       <set comment="band 8">
        <r>  0.0002  0.0021  0.0000  0.0045  0.0000  0.0000  0.0000  0.0000  0.0000 </r>
        <r>  0.0002  0.0021  0.0000  0.0045  0.0000  0.0000  0.0000  0.0000  0.0000 </r>
       </set>
       <set comment="band 9">
        <r>  0.0191  0.0626  0.0000  0.0633  0.0000  0.0000  0.0000  0.0000  0.0000 </r>
        <r>  0.0191  0.0626  0.0000  0.0633  0.0000  0.0000  0.0000  0.0000  0.0000 </r>
       </set>
       <set comment="band 10">
        <r>  0.0172  0.0817  0.0000  0.0065  0.0000  0.0000  0.0000  0.0000  0.0000 </r>
        <r>  0.0172  0.0817  0.0000  0.0065  0.0000  0.0000  0.0000  0.0000  0.0000 </r>
       </set>
       <set comment="band 11">
        <r>  0.0000  0.0003  0.0027  0.0002  0.0000  0.0000  0.0000  0.0000  0.0000 </r>
        <r>  0.0000  0.0003  0.0027  0.0002  0.0000  0.0000  0.0000  0.0000  0.0000 </r>
       </set>
       <set comment="band 12">
        <r>  0.0001  0.0009  0.0002  0.0001  0.0000  0.0000  0.0000  0.0000  0.0000 </r>
        <r>  0.0001  0.0009  0.0002  0.0001  0.0000  0.0000  0.0000  0.0000  0.0000 </r>
       </set>
       <set comment="band 13">
        <r>  0.0002  0.0004  0.0101  0.0018  0.0000  0.0000  0.0000  0.0000  0.0000 </r>
        <r>  0.0002  0.0004  0.0101  0.0018  0.0000  0.0000  0.0000  0.0000  0.0000 </r>
       </set>
       <set comment="band 14">
        <r>  0.0012  0.0017  0.0024  0.0095  0.0000  0.0000  0.0000  0.0000  0.0000 </r>
        <r>  0.0012  0.0017  0.0024  0.0095  0.0000  0.0000  0.0000  0.0000  0.0000 </r>
       </set>
       <set comment="band 15">
        <r>  0.0004  0.0003  0.0020  0.0041  0.0000  0.0000  0.0000  0.0000  0.0000 </r>
        <r>  0.0004  0.0003  0.0020  0.0041  0.0000  0.0000  0.0000  0.0000  0.0000 </r>
       </set>
       <set comment="band 16">
        <r>  0.0008  0.0019  0.0015  0.0014  0.0000  0.0000  0.0000  0.0000  0.0000 </r>
        <r>  0.0008  0.0019  0.0015  0.0014  0.0000  0.0000  0.0000  0.0000  0.0000 </r>
       </set>
      </set>
      <set comment="kpoint 91">
       <set comment="band 1">
        <r>  0.2521  0.0625  0.0000  0.0625  0.0000  0.0000  0.0000  0.0000  0.0000 </r>
        <r>  0.2521  0.0625  0.0000  0.0625  0.0000  0.0000  0.0000  0.0000  0.0000 </r>
       </set>
       <set comment="band 2">
        <r>  0.2521  0.0625  0.0000  0.0625  0.0000  0.0000  0.0000  0.0000  0.0000 </r>
        <r>  0.2521  0.0625  0.0000  0.0625  0.0000  0.0000  0.0000  0.0000  0.0000 </r>
       </set>
       <set comment="band 3">
        <r>  0.0000  0.1627  0.0000  0.1627  0.0000  0.0000  0.0000  0.0000  0.0000 </r>
        <r>  0.0000  0.1627  0.0000  0.1627  0.0000  0.0000  0.0000  0.0000  0.0000 </r>
       </set>
       <set comment="band 4">
        <r>  0.0000  0.0000  0.2616  0.0000  0.0000  0.0000  0.0000  0.0000  0.0000 </r>
        <r>  0.0000  0.0000  0.2616  0.0000  0.0000  0.0000  0.0000  0.0000  0.0000 </r>
       </set>
       <set comment="band 5">
        <r>  0.0000  0.0000  0.2616  0.0000  0.0000  0.0000  0.0000  0.0000  0.0000 </r>
        <r>  0.0000  0.0000  0.2616  0.0000  0.0000  0.0000  0.0000  0.0000  0.0000 </r>
       </set>
       <set comment="band 6">
        <r>  0.0000  0.0000  0.0000  0.0000  0.0000  0.0000  0.0000  0.0000  0.0000 </r>
        <r>  0.0000  0.0000  0.0000  0.0000  0.0000  0.0000  0.0000  0.0000  0.0000 </r>
       </set>
       <set comment="band 7">
        <r>  0.0083  0.0520  0.0000  0.0520  0.0000  0.0000  0.0000  0.0000  0.0000 </r>
        <r>  0.0083  0.0520  0.0000  0.0519  0.0000  0.0000  0.0000  0.0000  0.0000 </r>
       </set>
       <set comment="band 8">
        <r>  0.0084  0.0525  0.0000  0.0525  0.0000  0.0000  0.0000  0.0000  0.0000 </r>
        <r>  0.0084  0.0525  0.0000  0.0525  0.0000  0.0000  0.0000  0.0000  0.0000 </r>
       </set>
       <set comment="band 9">
        <r>  0.0003  0.0008  0.0000  0.0014  0.0000  0.0000  0.0000  0.0000  0.0000 </r>
        <r>  0.0003  0.0008  0.0000  0.0014  0.0000  0.0000  0.0000  0.0000  0.0000 </r>
       </set>
       <set comment="band 10">
        <r>  0.0002  0.0005  0.0000  0.0005  0.0000  0.0000  0.0000  0.0000  0.0000 </r>
        <r>  0.0002  0.0005  0.0000  0.0005  0.0000  0.0000  0.0000  0.0000  0.0000 </r>
       </set>
       <set comment="band 11">
        <r>  0.0000  0.0208  0.0000  0.0203  0.0000  0.0000  0.0000  0.0000  0.0000 </r>
        <r>  0.0000  0.0208  0.0000  0.0203  0.0000  0.0000  0.0000  0.0000  0.0000 </r>
       </set>
       <set comment="band 12">
        <r>  0.0001  0.0010  0.0019  0.0000  0.0000  0.0000  0.0000  0.0000  0.0000 </r>
        <r>  0.0001  0.0010  0.0019  0.0000  0.0000  0.0000  0.0000  0.0000  0.0000 </r>
       </set>
       <set comment="band 13">
        <r>  0.0000  0.0000  0.0078  0.0000  0.0000  0.0000  0.0000  0.0000  0.0000 </r>
        <r>  0.0000  0.0000  0.0078  0.0000  0.0000  0.0000  0.0000  0.0000  0.0000 </r>
       </set>
       <set comment="band 14">
        <r>  0.0001  0.0000  0.0023  0.0008  0.0000  0.0000  0.0000  0.0000  0.0000 </r>
        <r>  0.0001  0.0000  0.0023  0.0008  0.0000  0.0000  0.0000  0.0000  0.0000 </r>
       </set>
       <set comment="band 15">
        <r>  0.0021  0.0033  0.0107  0.0032  0.0000  0.0000  0.0000  0.0000  0.0000 </r>
        <r>  0.0021  0.0033  0.0107  0.0032  0.0000  0.0000  0.0000  0.0000  0.0000 </r>
       </set>
       <set comment="band 16">
        <r>  0.0034  0.0048  0.0086  0.0048  0.0000  0.0000  0.0000  0.0000  0.0000 </r>
        <r>  0.0034  0.0048  0.0086  0.0048  0.0000  0.0000  0.0000  0.0000  0.0000 </r>
       </set>
      </set>
     </set>
    </set>
   </array>
  </projected>
 </calculation>
 <structure name="finalpos" >
  <crystal>
   <varray name="basis" >
    <v>       1.23184632      -2.13362158       0.00000000 </v>
    <v>       1.23184632       2.13362158       0.00000000 </v>
    <v>       0.00000000       0.00000000      20.00000000 </v>
   </varray>
   <i name="volume">    105.13175568 </i>
   <varray name="rec_basis" >
    <v>       0.40589479      -0.23434334       0.00000000 </v>
    <v>       0.40589479       0.23434334       0.00000000 </v>
    <v>       0.00000000       0.00000000       0.05000000 </v>
   </varray>
  </crystal>
  <varray name="positions" >
   <v>       0.33333400       0.66666600       0.09753800 </v>
   <v>       0.00000000      -0.00000000       0.09753800 </v>
  </varray>
 </structure>
</modeling>
