       N       E                     dE             d eps       ncg     rms          rms(c)
DAV:   1     0.118252642552E+04    0.11825E+04   -0.49968E+04  2408   0.130E+03
DAV:   2     0.201127232852E+03   -0.98140E+03   -0.94076E+03  3072   0.237E+02
DAV:   3    -0.345214879675E+02   -0.23565E+03   -0.23474E+03  2760   0.959E+01
DAV:   4    -0.475448237011E+02   -0.13023E+02   -0.12967E+02  3056   0.287E+01
DAV:   5    -0.482541994312E+02   -0.70938E+00   -0.70882E+00  3696   0.480E+00    0.525E+01
DAV:   6    -0.730391183142E+02   -0.24785E+02   -0.32304E+02  2960   0.107E+01    0.430E+01
DAV:   7    -0.370518214714E+02    0.35987E+02   -0.10178E+03  2608   0.311E+01    0.355E+01
DAV:   8    -0.234087293433E+03   -0.19704E+03   -0.14661E+03  2848   0.108E+01    0.205E+01
DAV:   9    -0.379622259973E+02    0.19613E+03   -0.14250E+03  2408   0.263E+01    0.152E+01
DAV:  10    -0.421142791856E+02   -0.41521E+01   -0.88426E+00  2568   0.457E+00    0.112E+01
DAV:  11    -0.860770350863E+03   -0.81866E+03   -0.74037E+03  3296   0.132E+01    0.151E+01
DAV:  12    -0.406313859417E+02    0.82014E+03   -0.13051E+03  2448   0.237E+01    0.631E+00
DAV:  13    -0.426901140462E+02   -0.20587E+01   -0.10995E+01  2528   0.433E+00    0.697E+00
DAV:  14    -0.433034928559E+02   -0.61338E+00   -0.15362E+00  2768   0.269E+00    0.444E+00
DAV:  15    -0.843964192670E+02   -0.41093E+02   -0.39657E+02  3144   0.395E+00    0.192E+01
DAV:  16    -0.420004504895E+02    0.42396E+02   -0.20289E+03  2376   0.640E+01    0.334E+00
DAV:  17    -0.437618162388E+02   -0.17614E+01   -0.11582E+01  2528   0.545E+00    0.213E+00
DAV:  18    -0.439444627766E+02   -0.18265E+00   -0.19285E+00  2520   0.452E+00    0.183E+00
DAV:  19    -0.440494056238E+02   -0.10494E+00   -0.19619E-01  2432   0.165E+00    0.153E+00
DAV:  20    -0.441803298845E+02   -0.13092E+00   -0.43810E-02  2504   0.925E-01    0.123E+00
DAV:  21    -0.442065079122E+02   -0.26178E-01   -0.27669E-02  2432   0.696E-01    0.931E-01
DAV:  22    -0.442269134404E+02   -0.20406E-01   -0.59494E-03  2296   0.377E-01    0.843E-01
DAV:  23    -0.442523380161E+02   -0.25425E-01   -0.11189E-02  2384   0.498E-01    0.786E-01
DAV:  24    -0.442612071204E+02   -0.88691E-02   -0.54910E-03  2312   0.316E-01    0.716E-01
DAV:  25    -0.442676386816E+02   -0.64316E-02   -0.64025E-04  2360   0.116E-01    0.654E-01
DAV:  26    -0.442764428609E+02   -0.88042E-02   -0.66975E-04  2280   0.119E-01    0.558E-01
DAV:  27    -0.442856313380E+02   -0.91885E-02   -0.59574E-04  2288   0.105E-01    0.442E-01
DAV:  28    -0.442919788910E+02   -0.63476E-02   -0.35433E-04  2344   0.824E-02    0.358E-01
DAV:  29    -0.443047691056E+02   -0.12790E-01   -0.12899E-03  2384   0.143E-01    0.191E-01
DAV:  30    -0.443103945948E+02   -0.56255E-02   -0.57904E-04  2552   0.106E-01    0.151E-01
DAV:  31    -0.443094763701E+02    0.91822E-03   -0.50509E-04  2248   0.104E-01    0.172E-01
DAV:  32    -0.443114227437E+02   -0.19464E-02   -0.28571E-04  2224   0.668E-02    0.164E-01
DAV:  33    -0.443146541198E+02   -0.32314E-02   -0.63084E-04  2312   0.100E-01    0.149E-01
DAV:  34    -0.443147965594E+02   -0.14244E-03   -0.15348E-05  2160   0.166E-02    0.149E-01
DAV:  35    -0.443151207258E+02   -0.32417E-03   -0.48477E-05  2040   0.276E-02    0.147E-01
DAV:  36    -0.443160859442E+02   -0.96522E-03   -0.13303E-04  2016   0.475E-02    0.142E-01
DAV:  37    -0.443164370709E+02   -0.35113E-03   -0.50722E-05  1928   0.302E-02    0.140E-01
DAV:  38    -0.443167053638E+02   -0.26829E-03   -0.37853E-05  1984   0.261E-02    0.138E-01
DAV:  39    -0.443169949908E+02   -0.28963E-03   -0.18520E-05  2192   0.194E-02    0.135E-01
DAV:  40    -0.443171334541E+02   -0.13846E-03   -0.70961E-06  2008   0.111E-02    0.134E-01
DAV:  41    -0.443172403084E+02   -0.10685E-03   -0.18492E-05  2016   0.169E-02    0.133E-01
DAV:  42    -0.443173568404E+02   -0.11653E-03   -0.34126E-05  2000   0.227E-02    0.132E-01
DAV:  43    -0.443174418527E+02   -0.85012E-04   -0.18722E-05  2000   0.181E-02    0.130E-01
DAV:  44    -0.443175919545E+02   -0.15010E-03   -0.14627E-05  1952   0.145E-02    0.129E-01
DAV:  45    -0.443176371186E+02   -0.45164E-04   -0.14069E-05  1984   0.136E-02    0.129E-01
DAV:  46    -0.443176921331E+02   -0.55014E-04   -0.88570E-06  1736   0.104E-02    0.128E-01
DAV:  47    -0.443180242693E+02   -0.33214E-03   -0.15312E-05  2000   0.163E-02    0.125E-01
DAV:  48    -0.443186765929E+02   -0.65232E-03   -0.10107E-04  1960   0.341E-02    0.120E-01
DAV:  49    -0.443191305754E+02   -0.45398E-03   -0.11120E-04  2104   0.373E-02    0.115E-01
DAV:  50    -0.443198135785E+02   -0.68300E-03   -0.17067E-05  2096   0.175E-02    0.110E-01
DAV:  51    -0.443210109279E+02   -0.11973E-02   -0.26139E-05  2136   0.215E-02    0.985E-02
DAV:  52    -0.443232295105E+02   -0.22186E-02   -0.59510E-05  2136   0.328E-02    0.784E-02
DAV:  53    -0.443259854065E+02   -0.27559E-02   -0.12980E-04  2136   0.486E-02    0.543E-02
DAV:  54    -0.443276878355E+02   -0.17024E-02   -0.77754E-05  2024   0.378E-02    0.401E-02
DAV:  55    -0.443280639639E+02   -0.37613E-03   -0.64549E-06  2008   0.109E-02    0.371E-02
DAV:  56    -0.443283557836E+02   -0.29182E-03   -0.94719E-06  1848   0.133E-02    0.352E-02
DAV:  57    -0.443283838361E+02   -0.28052E-04   -0.30767E-07  1648   0.236E-03    0.350E-02
DAV:  58    -0.443283842135E+02   -0.37733E-06   -0.12760E-07  1608   0.158E-03    0.350E-02
DAV:  59    -0.443291829296E+02   -0.79872E-03   -0.27405E-05  2000   0.225E-02    0.290E-02
DAV:  60    -0.443305507606E+02   -0.13678E-02   -0.12194E-04  2168   0.470E-02    0.189E-02
DAV:  61    -0.443320995364E+02   -0.15488E-02   -0.86761E-04  2032   0.129E-01    0.271E-03
DAV:  62    -0.443321019913E+02   -0.24548E-05   -0.10902E-06  2352   0.426E-03    0.144E-03
DAV:  63    -0.443320905224E+02    0.11469E-04   -0.22219E-08  1552   0.128E-03    0.203E-03
DAV:  64    -0.443320889889E+02    0.15335E-05   -0.12236E-07  1648   0.196E-03    0.275E-03
DAV:  65    -0.443320913109E+02   -0.23219E-05   -0.90322E-07  1904   0.459E-03    0.368E-03
DAV:  66    -0.443321046680E+02   -0.13357E-04   -0.68149E-07  1992   0.390E-03    0.272E-03
DAV:  67    -0.443321084543E+02   -0.37863E-05   -0.15752E-07  1904   0.204E-03    0.163E-03
DAV:  68    -0.443321009532E+02    0.75012E-05   -0.30064E-07  1904   0.217E-03    0.619E-04
DAV:  69    -0.443320855217E+02    0.15431E-04   -0.13510E-07  1872   0.172E-03    0.335E-04
DAV:  70    -0.443320693499E+02    0.16172E-04   -0.15098E-07  1776   0.181E-03    0.137E-04
DAV:  71    -0.443320573854E+02    0.11965E-04   -0.11643E-07  1744   0.167E-03    0.938E-05
DAV:  72    -0.443320517612E+02    0.56242E-05   -0.83440E-08  1664   0.157E-03    0.141E-04
DAV:  73    -0.443320448352E+02    0.69261E-05   -0.61807E-08  1576   0.141E-03    0.106E-04
DAV:  74    -0.443320438661E+02    0.96910E-06   -0.12456E-08  1544   0.113E-03    0.690E-05
DAV:  75    -0.443320417317E+02    0.21344E-05   -0.31381E-08  1488   0.123E-03    0.660E-05
DAV:  76    -0.443320395317E+02    0.22000E-05   -0.24101E-08  1488   0.119E-03    0.830E-05
DAV:  77    -0.443320383628E+02    0.11690E-05    0.15717E-10  1408   0.987E-04    0.780E-05
DAV:  78    -0.443320374473E+02    0.91545E-06    0.15911E-08  1360   0.814E-04    0.656E-05
DAV:  79    -0.443320370916E+02    0.35567E-06    0.30161E-08  1352   0.604E-04    0.623E-05
DAV:  80    -0.443320369996E+02    0.92094E-07    0.28299E-08  1352   0.654E-04
   1 F= -.44332037E+02 E0= -.44332037E+02  d E =-.443320E+02  mag=     0.0000
       N       E                     dE             d eps       ncg     rms          rms(c)
DAV:   1    -0.443320692025E+02   -0.32111E-04   -0.33300E-03  2112   0.154E-01    0.536E-02
DAV:   2    -0.443321291325E+02   -0.59930E-04   -0.16279E-04  2112   0.357E-02    0.249E-02
DAV:   3    -0.443318247857E+02    0.30435E-03   -0.58017E-06  2472   0.728E-03    0.137E-02
DAV:   4    -0.443315827909E+02    0.24199E-03   -0.32618E-06  2512   0.541E-03    0.559E-03
DAV:   5    -0.443316535543E+02   -0.70763E-04   -0.34750E-07  1952   0.229E-03    0.316E-03
DAV:   6    -0.443317555985E+02   -0.10204E-03   -0.10044E-07  1568   0.171E-03    0.127E-03
DAV:   7    -0.443318400934E+02   -0.84495E-04   -0.59893E-08  1504   0.153E-03    0.651E-04
DAV:   8    -0.443318428888E+02   -0.27954E-05    0.13290E-08  1472   0.888E-04    0.590E-04
DAV:   9    -0.443318435666E+02   -0.67778E-06   -0.37071E-09  1400   0.107E-03    0.325E-04
DAV:  10    -0.443318761554E+02   -0.32589E-04   -0.23236E-08  1464   0.123E-03    0.494E-04
DAV:  11    -0.443318754989E+02    0.65640E-06    0.85425E-09  1464   0.922E-04    0.326E-04
DAV:  12    -0.443318769034E+02   -0.14045E-05    0.18773E-08  1360   0.795E-04    0.352E-04
DAV:  13    -0.443318734974E+02    0.34060E-05   -0.22484E-08  1440   0.121E-03    0.816E-05
DAV:  14    -0.443318769890E+02   -0.34916E-05   -0.31018E-08  1496   0.126E-03    0.185E-04
DAV:  15    -0.443318768910E+02    0.98078E-07    0.23494E-08  1520   0.693E-04
   2 F= -.44331877E+02 E0= -.44331877E+02  d E =0.160109E-03  mag=     0.0000
       N       E                     dE             d eps       ncg     rms          rms(c)
DAV:   1    -0.443318977999E+02   -0.20811E-04   -0.85838E-03  2112   0.247E-01    0.860E-02
DAV:   2    -0.443320000887E+02   -0.10229E-03   -0.41911E-04  2176   0.572E-02    0.399E-02
DAV:   3    -0.443315098959E+02    0.49019E-03   -0.14919E-05  2512   0.114E-02    0.220E-02
DAV:   4    -0.443311229658E+02    0.38693E-03   -0.81977E-06  2544   0.789E-03    0.898E-03
DAV:   5    -0.443312365113E+02   -0.11355E-03   -0.85841E-07  2432   0.293E-03    0.527E-03
DAV:   6    -0.443314113728E+02   -0.17486E-03   -0.19110E-07  1696   0.193E-03    0.206E-03
DAV:   7    -0.443315488330E+02   -0.13746E-03   -0.10210E-07  1488   0.166E-03    0.115E-03
DAV:   8    -0.443315506087E+02   -0.17757E-05    0.80930E-09  1488   0.938E-04    0.106E-03
DAV:   9    -0.443315449366E+02    0.56721E-05    0.22393E-09  1368   0.102E-03    0.489E-04
DAV:  10    -0.443315908794E+02   -0.45943E-04   -0.25974E-08  1440   0.120E-03    0.824E-04
DAV:  11    -0.443315892629E+02    0.16165E-05    0.19195E-08  1552   0.804E-04    0.665E-04
DAV:  12    -0.443315910749E+02   -0.18120E-05    0.18279E-08  1360   0.793E-04    0.690E-04
DAV:  13    -0.443315949891E+02   -0.39143E-05   -0.20509E-08  1440   0.120E-03    0.141E-04
DAV:  14    -0.443315987551E+02   -0.37660E-05   -0.25614E-08  1464   0.125E-03    0.356E-04
DAV:  15    -0.443315985277E+02    0.22744E-06    0.33140E-08  1600   0.565E-04    0.385E-04
DAV:  16    -0.443315985740E+02   -0.46253E-07    0.37802E-08  1344   0.444E-04
   3 F= -.44331599E+02 E0= -.44331599E+02  d E =0.438426E-03  mag=     0.0000
       N       E                     dE             d eps       ncg     rms          rms(c)
DAV:   1    -0.443316275997E+02   -0.29072E-04   -0.15061E-03  2112   0.102E-01    0.239E-02
DAV:   2    -0.443316847476E+02   -0.57148E-04   -0.79739E-05  2216   0.229E-02    0.152E-02
DAV:   3    -0.443318452398E+02   -0.16049E-03   -0.24970E-06  2344   0.492E-03    0.917E-03
DAV:   4    -0.443319856977E+02   -0.14046E-03   -0.38276E-06  2496   0.508E-03    0.412E-03
DAV:   5    -0.443318326766E+02    0.15302E-03   -0.27519E-07  1944   0.204E-03    0.244E-03
DAV:   6    -0.443316618489E+02    0.17083E-03   -0.53367E-07  2240   0.224E-03    0.616E-04
DAV:   7    -0.443316510932E+02    0.10756E-04   -0.41587E-08  1552   0.137E-03    0.365E-04
DAV:   8    -0.443316241169E+02    0.26976E-04   -0.32707E-08  1480   0.131E-03    0.166E-04
DAV:   9    -0.443316097504E+02    0.14367E-04   -0.19291E-08  1440   0.122E-03    0.822E-05
DAV:  10    -0.443316080928E+02    0.16576E-05    0.40510E-09  1376   0.968E-04    0.732E-05
DAV:  11    -0.443316040087E+02    0.40841E-05   -0.14869E-08  1440   0.112E-03    0.639E-05
DAV:  12    -0.443316027035E+02    0.13052E-05    0.10145E-08  1360   0.883E-04    0.628E-05
DAV:  13    -0.443316016716E+02    0.10319E-05    0.16801E-08  1360   0.807E-04    0.629E-05
DAV:  14    -0.443316002926E+02    0.13789E-05    0.19774E-08  1360   0.770E-04    0.618E-05
DAV:  15    -0.443315997834E+02    0.50920E-06    0.26078E-08  1360   0.686E-04    0.621E-05
DAV:  16    -0.443315992067E+02    0.57672E-06    0.27719E-08  1352   0.655E-04    0.619E-05
DAV:  17    -0.443315986320E+02    0.57475E-06    0.19633E-08  1360   0.728E-04    0.615E-05
DAV:  18    -0.443315977555E+02    0.87650E-06    0.26329E-08  1352   0.622E-04    0.613E-05
DAV:  19    -0.443315978994E+02   -0.14389E-06    0.36118E-08  1344   0.487E-04    0.614E-05
DAV:  20    -0.443315976237E+02    0.27568E-06    0.37737E-08  1344   0.464E-04    0.613E-05
DAV:  21    -0.443315975737E+02    0.49989E-07    0.35900E-08  1344   0.497E-04
   4 F= -.44331598E+02 E0= -.44331598E+02  d E =0.100027E-05  mag=     0.0000
       N       E                     dE             d eps       ncg     rms          rms(c)
DAV:   1    -0.443317010941E+02   -0.10347E-03   -0.13520E-02  2112   0.301E-01    0.719E-02
DAV:   2    -0.443318561566E+02   -0.15506E-03   -0.71791E-04  2240   0.682E-02    0.456E-02
DAV:   3    -0.443323287591E+02   -0.47260E-03   -0.22461E-05  2688   0.140E-02    0.273E-02
DAV:   4    -0.443327418877E+02   -0.41313E-03   -0.33797E-05  2512   0.141E-02    0.122E-02
DAV:   5    -0.443322891951E+02    0.45269E-03   -0.25585E-06  2616   0.440E-03    0.732E-03
DAV:   6    -0.443317591558E+02    0.53004E-03   -0.40405E-06  2584   0.452E-03    0.192E-03
DAV:   7    -0.443317285051E+02    0.30651E-04   -0.26321E-07  2136   0.192E-03    0.103E-03
DAV:   8    -0.443316633362E+02    0.65169E-04   -0.68594E-08  1552   0.159E-03    0.544E-04
DAV:   9    -0.443316040943E+02    0.59242E-04   -0.71524E-08  1576   0.156E-03    0.222E-04
DAV:  10    -0.443316018884E+02    0.22059E-05   -0.83773E-09  1400   0.112E-03    0.133E-04
DAV:  11    -0.443315962799E+02    0.56084E-05   -0.14912E-08  1424   0.115E-03    0.855E-05
DAV:  12    -0.443315947409E+02    0.15390E-05    0.49900E-09  1368   0.942E-04    0.702E-05
DAV:  13    -0.443315938814E+02    0.85956E-06   -0.22905E-09  1392   0.102E-03    0.703E-05
DAV:  14    -0.443315899496E+02    0.39317E-05   -0.39637E-08  1528   0.130E-03    0.645E-05
DAV:  15    -0.443315891131E+02    0.83657E-06   -0.24813E-09  1408   0.102E-03    0.635E-05
DAV:  16    -0.443315892437E+02   -0.13066E-06   -0.82102E-09  1416   0.108E-03    0.629E-05
DAV:  17    -0.443315892708E+02   -0.27079E-07   -0.17263E-08  1440   0.114E-03
   5 F= -.44331589E+02 E0= -.44331589E+02  d E =0.930315E-05  mag=     0.0000
       N       E                     dE             d eps       ncg     rms          rms(c)
DAV:   1    -0.443318727190E+02   -0.28348E-03   -0.54033E-02  2112   0.597E-01    0.144E-01
DAV:   2    -0.443321305111E+02   -0.25779E-03   -0.28682E-03  2304   0.136E-01    0.913E-02
DAV:   3    -0.443330398295E+02   -0.90932E-03   -0.89436E-05  2736   0.277E-02    0.547E-02
DAV:   4    -0.443338500033E+02   -0.81017E-03   -0.13486E-04  2544   0.279E-02    0.244E-02
DAV:   5    -0.443329481239E+02    0.90188E-03   -0.10051E-05  2920   0.795E-03    0.146E-02
DAV:   6    -0.443318882000E+02    0.10599E-02   -0.15884E-05  2592   0.829E-03    0.382E-03
DAV:   7    -0.443318271536E+02    0.61046E-04   -0.11020E-06  2856   0.292E-03    0.205E-03
DAV:   8    -0.443316907553E+02    0.13640E-03   -0.13758E-07  1648   0.196E-03    0.117E-03
DAV:   9    -0.443315686012E+02    0.12215E-03   -0.18376E-07  1712   0.211E-03    0.486E-04
DAV:  10    -0.443315553371E+02    0.13264E-04   -0.74705E-08  1600   0.164E-03    0.207E-04
DAV:  11    -0.443315497969E+02    0.55402E-05   -0.48789E-08  1560   0.144E-03    0.101E-04
DAV:  12    -0.443315505569E+02   -0.75998E-06   -0.20914E-08  1440   0.125E-03    0.796E-05
DAV:  13    -0.443315492459E+02    0.13110E-05   -0.33543E-08  1496   0.134E-03    0.725E-05
DAV:  14    -0.443315438682E+02    0.53778E-05   -0.77899E-08  1584   0.157E-03    0.720E-05
DAV:  15    -0.443315452349E+02   -0.13668E-05   -0.21879E-08  1480   0.123E-03    0.640E-05
DAV:  16    -0.443315462215E+02   -0.98656E-06   -0.56126E-08  1552   0.140E-03    0.654E-05
DAV:  17    -0.443315466537E+02   -0.43217E-06   -0.29100E-08  1504   0.128E-03    0.635E-05
DAV:  18    -0.443315469138E+02   -0.26016E-06   -0.16274E-08  1440   0.115E-03    0.624E-05
DAV:  19    -0.443315470355E+02   -0.12171E-06    0.99367E-09  1368   0.873E-04    0.620E-05
DAV:  20    -0.443315476188E+02   -0.58332E-06   -0.26137E-09  1424   0.104E-03    0.619E-05
DAV:  21    -0.443315480606E+02   -0.44179E-06   -0.91561E-10  1408   0.101E-03    0.614E-05
DAV:  22    -0.443315483251E+02   -0.26449E-06    0.19709E-08  1360   0.773E-04    0.614E-05
DAV:  23    -0.443315483455E+02   -0.20345E-07    0.32090E-08  1344   0.559E-04
   6 F= -.44331548E+02 E0= -.44331548E+02  d E =0.502285E-04  mag=     0.0000
       N       E                     dE             d eps       ncg     rms          rms(c)
DAV:   1    -0.443323701678E+02   -0.82184E-03   -0.21596E-01  2112   0.119E+00    0.288E-01
DAV:   2    -0.443326862759E+02   -0.31611E-03   -0.11457E-02  2320   0.272E-01    0.183E-01
DAV:   3    -0.443343591915E+02   -0.16729E-02   -0.35708E-04  2720   0.551E-02    0.110E-01
DAV:   4    -0.443359103037E+02   -0.15511E-02   -0.54014E-04  2544   0.555E-02    0.487E-02
DAV:   5    -0.443341190829E+02    0.17912E-02   -0.40062E-05  2912   0.154E-02    0.293E-02
DAV:   6    -0.443320029371E+02    0.21161E-02   -0.62867E-05  2736   0.159E-02    0.762E-03
DAV:   7    -0.443318801551E+02    0.12278E-03   -0.42129E-06  3064   0.486E-03    0.407E-03
DAV:   8    -0.443316061027E+02    0.27405E-03   -0.47494E-07  2160   0.266E-03    0.249E-03
DAV:   9    -0.443313305655E+02    0.27554E-03   -0.52568E-07  1984   0.310E-03    0.101E-03
DAV:  10    -0.443313358388E+02   -0.52734E-05   -0.14292E-07  1632   0.193E-03    0.570E-04
DAV:  11    -0.443313186210E+02    0.17218E-04   -0.21097E-07  1760   0.204E-03    0.227E-04
DAV:  12    -0.443313183053E+02    0.31575E-06   -0.72325E-08  1648   0.162E-03    0.128E-04
DAV:  13    -0.443313164344E+02    0.18709E-05   -0.72916E-08  1592   0.157E-03    0.109E-04
DAV:  14    -0.443313092153E+02    0.72191E-05   -0.17497E-07  1712   0.197E-03    0.114E-04
DAV:  15    -0.443313118643E+02   -0.26490E-05   -0.87398E-08  1632   0.165E-03    0.848E-05
DAV:  16    -0.443313156980E+02   -0.38337E-05   -0.84323E-08  1592   0.164E-03    0.779E-05
DAV:  17    -0.443313185169E+02   -0.28189E-05   -0.10128E-07  1616   0.172E-03    0.801E-05
DAV:  18    -0.443313187808E+02   -0.26394E-06   -0.51419E-08  1568   0.143E-03    0.665E-05
DAV:  19    -0.443313192671E+02   -0.48625E-06   -0.25768E-08  1488   0.122E-03    0.625E-05
DAV:  20    -0.443313214923E+02   -0.22252E-05   -0.26602E-08  1488   0.126E-03    0.644E-05
DAV:  21    -0.443313225207E+02   -0.10284E-05    0.55769E-09  1384   0.970E-04    0.633E-05
DAV:  22    -0.443313231433E+02   -0.62253E-06    0.21529E-08  1360   0.730E-04    0.618E-05
DAV:  23    -0.443313236043E+02   -0.46099E-06    0.24202E-08  1360   0.700E-04    0.616E-05
DAV:  24    -0.443313237115E+02   -0.10721E-06    0.30218E-08  1360   0.598E-04    0.616E-05
DAV:  25    -0.443313237352E+02   -0.23740E-07    0.34886E-08  1344   0.492E-04
   7 F= -.44331324E+02 E0= -.44331324E+02  d E =0.274839E-03  mag=    -0.0000
       N       E                     dE             d eps       ncg     rms          rms(c)
DAV:   1    -0.443314865162E+02   -0.16280E-03   -0.39618E-02  2112   0.512E-01    0.123E-01
DAV:   2    -0.443311054003E+02    0.38112E-03   -0.21055E-03  2304   0.117E-01    0.776E-02
DAV:   3    -0.443302079919E+02    0.89741E-03   -0.65788E-05  2592   0.238E-02    0.464E-02
DAV:   4    -0.443294604977E+02    0.74749E-03   -0.98147E-05  2560   0.238E-02    0.210E-02
DAV:   5    -0.443302449939E+02   -0.78450E-03   -0.72965E-06  2760   0.696E-03    0.125E-02
DAV:   6    -0.443311511766E+02   -0.90618E-03   -0.11728E-05  2528   0.729E-03    0.327E-03
DAV:   7    -0.443312040431E+02   -0.52867E-04   -0.83160E-07  2568   0.257E-03    0.175E-03
DAV:   8    -0.443313205712E+02   -0.11653E-03   -0.76443E-08  1568   0.163E-03    0.983E-04
DAV:   9    -0.443314237559E+02   -0.10318E-03   -0.10054E-07  1632   0.169E-03    0.403E-04
DAV:  10    -0.443314316848E+02   -0.79289E-05   -0.21601E-08  1448   0.125E-03    0.211E-04
DAV:  11    -0.443314396341E+02   -0.79493E-05   -0.68818E-09  1408   0.108E-03    0.995E-05
DAV:  12    -0.443314385668E+02    0.10672E-05    0.48464E-09  1392   0.965E-04    0.766E-05
DAV:  13    -0.443314397308E+02   -0.11639E-05   -0.30422E-09  1400   0.106E-03    0.738E-05
DAV:  14    -0.443314452894E+02   -0.55586E-05   -0.37113E-08  1520   0.133E-03    0.805E-05
DAV:  15    -0.443314441712E+02    0.11181E-05    0.12328E-10  1472   0.986E-04    0.678E-05
DAV:  16    -0.443314433663E+02    0.80490E-06   -0.10646E-08  1440   0.110E-03    0.642E-05
DAV:  17    -0.443314433828E+02   -0.16516E-07   -0.19736E-08  1448   0.120E-03
   8 F= -.44331443E+02 E0= -.44331443E+02  d E =0.155191E-03  mag=     0.0000
       N       E                     dE             d eps       ncg     rms          rms(c)
DAV:   1    -0.443314240552E+02    0.19311E-04   -0.18119E-02  2112   0.386E-01    0.599E-02
DAV:   2    -0.443314621768E+02   -0.38122E-04   -0.92145E-04  2184   0.869E-02    0.368E-02
DAV:   3    -0.443315703082E+02   -0.10813E-03   -0.16441E-05  2896   0.128E-02    0.236E-02
DAV:   4    -0.443317051221E+02   -0.13481E-03   -0.61875E-06  2208   0.846E-03    0.927E-03
DAV:   5    -0.443316533604E+02    0.51762E-04   -0.24520E-06  2520   0.448E-03    0.402E-03
DAV:   6    -0.443315399036E+02    0.11346E-03   -0.28465E-07  1872   0.211E-03    0.175E-03
DAV:   7    -0.443314622902E+02    0.77613E-04   -0.87082E-08  1568   0.176E-03    0.579E-04
DAV:   8    -0.443314413127E+02    0.20978E-04   -0.32447E-08  1504   0.136E-03    0.316E-04
DAV:   9    -0.443314250875E+02    0.16225E-04   -0.30148E-08  1464   0.131E-03    0.126E-04
DAV:  10    -0.443314253257E+02   -0.23819E-06   -0.56444E-09  1400   0.106E-03    0.124E-04
DAV:  11    -0.443314239661E+02    0.13595E-05    0.37132E-09  1368   0.944E-04    0.116E-04
DAV:  12    -0.443314199472E+02    0.40190E-05    0.59319E-09  1368   0.926E-04    0.897E-05
DAV:  13    -0.443314181344E+02    0.18128E-05    0.13925E-08  1360   0.884E-04    0.729E-05
DAV:  14    -0.443314170843E+02    0.10501E-05    0.13570E-08  1360   0.823E-04    0.708E-05
DAV:  15    -0.443314170648E+02    0.19503E-07    0.36442E-08  1392   0.490E-04
   9 F= -.44331417E+02 E0= -.44331417E+02  d E =0.263180E-04  mag=    -0.0000
       N       E                     dE             d eps       ncg     rms          rms(c)
DAV:   1    -0.443313405860E+02    0.76498E-04   -0.24923E-02  2112   0.452E-01    0.703E-02
DAV:   2    -0.443313980290E+02   -0.57443E-04   -0.12673E-03  2224   0.102E-01    0.432E-02
DAV:   3    -0.443315239714E+02   -0.12594E-03   -0.22588E-05  2928   0.149E-02    0.277E-02
DAV:   4    -0.443316801898E+02   -0.15622E-03   -0.84643E-06  2208   0.976E-03    0.109E-02
DAV:   5    -0.443316185071E+02    0.61683E-04   -0.33300E-06  2520   0.504E-03    0.471E-03
DAV:   6    -0.443314875295E+02    0.13098E-03   -0.39884E-07  1936   0.235E-03    0.207E-03
DAV:   7    -0.443313976315E+02    0.89898E-04   -0.11556E-07  1632   0.189E-03    0.701E-04
DAV:   8    -0.443313691570E+02    0.28474E-04   -0.25313E-08  1504   0.131E-03    0.360E-04
DAV:   9    -0.443313485400E+02    0.20617E-04   -0.38917E-08  1464   0.138E-03    0.144E-04
DAV:  10    -0.443313505380E+02   -0.19980E-05   -0.12906E-08  1424   0.115E-03    0.130E-04
DAV:  11    -0.443313496821E+02    0.85591E-06   -0.12704E-09  1384   0.103E-03    0.122E-04
DAV:  12    -0.443313446678E+02    0.50143E-05   -0.85267E-09  1424   0.105E-03    0.856E-05
DAV:  13    -0.443313435169E+02    0.11510E-05    0.72738E-09  1360   0.917E-04    0.751E-05
DAV:  14    -0.443313426198E+02    0.89711E-06    0.91053E-09  1360   0.866E-04    0.723E-05
DAV:  15    -0.443313424522E+02    0.16756E-06    0.28586E-08  1352   0.627E-04    0.702E-05
DAV:  16    -0.443313425492E+02   -0.96983E-07    0.32917E-08  1344   0.569E-04
  10 F= -.44331343E+02 E0= -.44331343E+02  d E =0.100834E-03  mag=    -0.0000
       N       E                     dE             d eps       ncg     rms          rms(c)
DAV:   1    -0.443313580439E+02   -0.15592E-04   -0.23797E-02  2112   0.381E-01    0.764E-02
DAV:   2    -0.443314214579E+02   -0.63414E-04   -0.10103E-03  2240   0.820E-02    0.402E-02
DAV:   3    -0.443313338363E+02    0.87622E-04   -0.19396E-05  2912   0.140E-02    0.264E-02
DAV:   4    -0.443311938287E+02    0.14001E-03   -0.16076E-05  2112   0.143E-02    0.817E-03
DAV:   5    -0.443312426078E+02   -0.48779E-04   -0.46637E-06  2576   0.602E-03    0.491E-03
DAV:   6    -0.443313238382E+02   -0.81230E-04   -0.19556E-07  1712   0.196E-03    0.285E-03
DAV:   7    -0.443314065595E+02   -0.82721E-04   -0.14152E-07  1568   0.182E-03    0.776E-04
DAV:   8    -0.443314225782E+02   -0.16019E-04   -0.26162E-08  1408   0.131E-03    0.377E-04
DAV:   9    -0.443314379324E+02   -0.15354E-04   -0.29323E-08  1456   0.133E-03    0.134E-04
DAV:  10    -0.443314359673E+02    0.19651E-05   -0.21842E-08  1448   0.123E-03    0.123E-04
DAV:  11    -0.443314354131E+02    0.55420E-06    0.45960E-09  1392   0.934E-04    0.106E-04
DAV:  12    -0.443314366564E+02   -0.12433E-05    0.16166E-08  1360   0.785E-04    0.736E-05
DAV:  13    -0.443314383851E+02   -0.17287E-05    0.17199E-08  1360   0.794E-04    0.677E-05
DAV:  14    -0.443314387656E+02   -0.38044E-06    0.16170E-08  1360   0.783E-04    0.650E-05
DAV:  15    -0.443314391895E+02   -0.42398E-06    0.25855E-08  1360   0.641E-04    0.625E-05
DAV:  16    -0.443314395099E+02   -0.32035E-06    0.26932E-08  1352   0.653E-04    0.621E-05
DAV:  17    -0.443314400107E+02   -0.50079E-06    0.23048E-08  1360   0.682E-04    0.615E-05
DAV:  18    -0.443314402354E+02   -0.22474E-06    0.25258E-08  1360   0.623E-04    0.614E-05
DAV:  19    -0.443314402625E+02   -0.27065E-07    0.34188E-08  1344   0.487E-04
  11 F= -.44331440E+02 E0= -.44331440E+02  d E =-.977133E-04  mag=    -0.0000
       N       E                     dE             d eps       ncg     rms          rms(c)
DAV:   1    -0.443312144009E+02    0.22583E-03   -0.15942E-01  2112   0.981E-01    0.198E-01
DAV:   2    -0.443315839510E+02   -0.36955E-03   -0.67695E-03  2416   0.212E-01    0.104E-01
DAV:   3    -0.443313276138E+02    0.25634E-03   -0.12941E-04  2848   0.359E-02    0.681E-02
DAV:   4    -0.443309601242E+02    0.36749E-03   -0.10620E-04  2288   0.361E-02    0.211E-02
DAV:   5    -0.443310941894E+02   -0.13407E-03   -0.30860E-05  2544   0.148E-02    0.127E-02
DAV:   6    -0.443313084352E+02   -0.21425E-03   -0.14456E-06  2552   0.384E-03    0.720E-03
DAV:   7    -0.443315075583E+02   -0.19912E-03   -0.65487E-07  1936   0.301E-03    0.231E-03
DAV:   8    -0.443315820334E+02   -0.74475E-04   -0.11708E-07  1608   0.187E-03    0.905E-04
DAV:   9    -0.443316160161E+02   -0.33983E-04   -0.73092E-08  1568   0.176E-03    0.360E-04
DAV:  10    -0.443316120453E+02    0.39708E-05   -0.26281E-08  1432   0.129E-03    0.277E-04
DAV:  11    -0.443316109328E+02    0.11126E-05    0.23319E-09  1368   0.998E-04    0.223E-04
DAV:  12    -0.443316128289E+02   -0.18962E-05   -0.13669E-08  1440   0.113E-03    0.730E-05
DAV:  13    -0.443316133107E+02   -0.48179E-06    0.98107E-09  1360   0.894E-04    0.891E-05
DAV:  14    -0.443316129159E+02    0.39486E-06    0.17993E-08  1360   0.800E-04    0.739E-05
DAV:  15    -0.443316131974E+02   -0.28148E-06    0.49846E-09  1376   0.909E-04    0.629E-05
DAV:  16    -0.443316133157E+02   -0.11839E-06    0.87022E-09  1360   0.904E-04    0.622E-05
DAV:  17    -0.443316132095E+02    0.10627E-06    0.35912E-09  1392   0.899E-04    0.617E-05
DAV:  18    -0.443316130442E+02    0.16525E-06    0.18506E-08  1360   0.733E-04    0.614E-05
DAV:  19    -0.443316128161E+02    0.22814E-06    0.24254E-08  1360   0.718E-04    0.616E-05
DAV:  20    -0.443316128169E+02   -0.83310E-09    0.32782E-08  1344   0.581E-04
  12 F= -.44331613E+02 E0= -.44331613E+02  d E =-.270268E-03  mag=    -0.0000
       N       E                     dE             d eps       ncg     rms          rms(c)
DAV:   1    -0.443315342195E+02    0.78597E-04   -0.36085E-02  2112   0.429E-01    0.796E-02
DAV:   2    -0.443316634671E+02   -0.12925E-03   -0.15334E-03  2256   0.939E-02    0.479E-02
DAV:   3    -0.443316406344E+02    0.22833E-04   -0.19885E-05  2832   0.131E-02    0.325E-02
DAV:   4    -0.443315739426E+02    0.66692E-04   -0.12732E-05  2352   0.113E-02    0.104E-02
DAV:   5    -0.443316719478E+02   -0.98005E-04   -0.32549E-06  2360   0.512E-03    0.337E-03
DAV:   6    -0.443317543694E+02   -0.82422E-04   -0.21723E-07  1912   0.214E-03    0.200E-03
DAV:   7    -0.443318143766E+02   -0.60007E-04   -0.92994E-08  1576   0.178E-03    0.739E-04
DAV:   8    -0.443318287075E+02   -0.14331E-04   -0.43992E-08  1504   0.143E-03    0.165E-04
DAV:   9    -0.443318337848E+02   -0.50772E-05   -0.34275E-08  1488   0.134E-03    0.134E-04
DAV:  10    -0.443318339666E+02   -0.18186E-06   -0.13927E-08  1416   0.117E-03    0.109E-04
DAV:  11    -0.443318332703E+02    0.69628E-06   -0.63476E-09  1408   0.109E-03    0.761E-05
DAV:  12    -0.443318347236E+02   -0.14533E-05   -0.19089E-08  1440   0.116E-03    0.672E-05
DAV:  13    -0.443318353002E+02   -0.57657E-06    0.14842E-08  1360   0.812E-04    0.632E-05
DAV:  14    -0.443318353166E+02   -0.16395E-07    0.43755E-08  1544   0.294E-04
  13 F= -.44331835E+02 E0= -.44331835E+02  d E =-.222500E-03  mag=     0.0000
       N       E                     dE             d eps       ncg     rms          rms(c)
DAV:   1    -0.443318360811E+02   -0.78095E-06   -0.26130E-05  2112   0.116E-02    0.215E-03
DAV:   2    -0.443318376823E+02   -0.16012E-05   -0.11114E-06  1920   0.286E-03    0.129E-03
DAV:   3    -0.443318378119E+02   -0.12959E-06    0.10144E-08  1360   0.949E-04    0.907E-04
DAV:   4    -0.443318396242E+02   -0.18123E-05   -0.14554E-08  1400   0.116E-03    0.195E-04
DAV:   5    -0.443318419254E+02   -0.23012E-05   -0.12504E-08  1408   0.107E-03    0.111E-04
DAV:   6    -0.443318432215E+02   -0.12961E-05   -0.24627E-09  1408   0.919E-04    0.925E-05
DAV:   7    -0.443318443450E+02   -0.11234E-05   -0.67311E-09  1408   0.102E-03    0.694E-05
DAV:   8    -0.443318441243E+02    0.22067E-06    0.64735E-09  1384   0.893E-04    0.633E-05
DAV:   9    -0.443318441647E+02   -0.40434E-07    0.25666E-08  1360   0.667E-04
  14 F= -.44331844E+02 E0= -.44331844E+02  d E =-.231348E-03  mag=    -0.0000
       N       E                     dE             d eps       ncg     rms          rms(c)
DAV:   1    -0.443318453336E+02   -0.12093E-05   -0.10456E-04  2112   0.231E-02    0.430E-03
DAV:   2    -0.443318467421E+02   -0.14085E-05   -0.44510E-06  1920   0.527E-03    0.257E-03
DAV:   3    -0.443318458638E+02    0.87831E-06   -0.25307E-08  1360   0.119E-03    0.179E-03
DAV:   4    -0.443318464532E+02   -0.58941E-06   -0.70321E-08  1472   0.149E-03    0.406E-04
DAV:   5    -0.443318504462E+02   -0.39930E-05   -0.86042E-09  1376   0.110E-03    0.189E-04
DAV:   6    -0.443318532238E+02   -0.27776E-05    0.84493E-09  1368   0.874E-04    0.135E-04
DAV:   7    -0.443318549468E+02   -0.17230E-05   -0.16774E-09  1384   0.959E-04    0.775E-05
DAV:   8    -0.443318550133E+02   -0.66502E-07   -0.53056E-09  1408   0.980E-04
  15 F= -.44331855E+02 E0= -.44331855E+02  d E =-.242196E-03  mag=     0.0000
       N       E                     dE             d eps       ncg     rms          rms(c)
DAV:   1    -0.443318561973E+02   -0.12505E-05   -0.41876E-04  2112   0.469E-02    0.861E-03
DAV:   2    -0.443318593975E+02   -0.32002E-05   -0.17809E-05  2112   0.103E-02    0.516E-03
DAV:   3    -0.443318572031E+02    0.21944E-05   -0.19483E-07  1616   0.183E-03    0.353E-03
DAV:   4    -0.443318571221E+02    0.80989E-07   -0.23475E-07  1744   0.213E-03
  16 F= -.44331857E+02 E0= -.44331857E+02  d E =-.244305E-03  mag=     0.0000
       N       E                     dE             d eps       ncg     rms          rms(c)
DAV:   1    -0.443318623711E+02   -0.51680E-05   -0.16761E-03  2112   0.933E-02    0.172E-02
DAV:   2    -0.443318746147E+02   -0.12244E-04   -0.71018E-05  2112   0.203E-02    0.102E-02
DAV:   3    -0.443318719362E+02    0.26785E-05   -0.94443E-07  2224   0.322E-03    0.692E-03
DAV:   4    -0.443318622491E+02    0.96871E-05   -0.70113E-07  1920   0.327E-03    0.208E-03
DAV:   5    -0.443318819825E+02   -0.19733E-04   -0.14765E-07  1648   0.179E-03    0.680E-04
DAV:   6    -0.443318956276E+02   -0.13645E-04   -0.30290E-08  1464   0.131E-03    0.472E-04
DAV:   7    -0.443319067605E+02   -0.11133E-04   -0.27920E-08  1464   0.123E-03    0.158E-04
DAV:   8    -0.443319089735E+02   -0.22131E-05   -0.21513E-08  1456   0.115E-03    0.872E-05
DAV:   9    -0.443319112705E+02   -0.22970E-05    0.31321E-09  1392   0.936E-04    0.774E-05
DAV:  10    -0.443319136011E+02   -0.23306E-05    0.11128E-08  1368   0.871E-04    0.657E-05
DAV:  11    -0.443319146314E+02   -0.10303E-05    0.86027E-09  1368   0.883E-04    0.649E-05
DAV:  12    -0.443319156226E+02   -0.99121E-06    0.19851E-08  1360   0.779E-04    0.629E-05
DAV:  13    -0.443319174700E+02   -0.18474E-05    0.14741E-08  1360   0.866E-04    0.619E-05
DAV:  14    -0.443319162516E+02    0.12184E-05    0.21450E-08  1360   0.720E-04    0.652E-05
DAV:  15    -0.443319160702E+02    0.18142E-06    0.41028E-08  1344   0.382E-04    0.679E-05
DAV:  16    -0.443319166057E+02   -0.53556E-06    0.31531E-08  1352   0.594E-04    0.654E-05
DAV:  17    -0.443319174150E+02   -0.80931E-06    0.22646E-08  1360   0.717E-04    0.636E-05
DAV:  18    -0.443319174494E+02   -0.34366E-07    0.37462E-08  1344   0.441E-04
  17 F= -.44331917E+02 E0= -.44331917E+02  d E =-.304632E-03  mag=     0.0000
       N       E                     dE             d eps       ncg     rms          rms(c)
DAV:   1    -0.443318973184E+02    0.20097E-04   -0.66957E-03  2112   0.186E-01    0.344E-02
DAV:   2    -0.443319258429E+02   -0.28524E-04   -0.28474E-04  2144   0.406E-02    0.207E-02
DAV:   3    -0.443319165054E+02    0.93374E-05   -0.37038E-06  2432   0.591E-03    0.141E-02
DAV:   4    -0.443318865606E+02    0.29945E-04   -0.26420E-06  2168   0.563E-03    0.434E-03
DAV:   5    -0.443319266564E+02   -0.40096E-04   -0.61518E-07  2192   0.260E-03    0.144E-03
DAV:   6    -0.443319600900E+02   -0.33434E-04   -0.51058E-08  1552   0.145E-03    0.834E-04
DAV:   7    -0.443319847722E+02   -0.24682E-04   -0.33422E-08  1456   0.131E-03    0.304E-04
DAV:   8    -0.443319894528E+02   -0.46807E-05   -0.43230E-09  1376   0.108E-03    0.122E-04
DAV:   9    -0.443319924244E+02   -0.29716E-05   -0.36551E-09  1400   0.104E-03    0.899E-05
DAV:  10    -0.443319942517E+02   -0.18273E-05    0.36471E-09  1376   0.928E-04    0.716E-05
DAV:  11    -0.443319952848E+02   -0.10331E-05   -0.31732E-09  1408   0.101E-03    0.653E-05
DAV:  12    -0.443319959588E+02   -0.67397E-06    0.60487E-09  1368   0.876E-04    0.627E-05
DAV:  13    -0.443319968792E+02   -0.92045E-06    0.10886E-08  1368   0.862E-04    0.616E-05
DAV:  14    -0.443319973123E+02   -0.43307E-06    0.20763E-08  1360   0.774E-04    0.616E-05
DAV:  15    -0.443319980097E+02   -0.69735E-06    0.18270E-08  1360   0.804E-04    0.612E-05
DAV:  16    -0.443319984378E+02   -0.42810E-06    0.26597E-08  1360   0.671E-04    0.612E-05
DAV:  17    -0.443319988645E+02   -0.42676E-06    0.27965E-08  1352   0.665E-04    0.612E-05
DAV:  18    -0.443319989198E+02   -0.55286E-07    0.37794E-08  1344   0.433E-04
  18 F= -.44331999E+02 E0= -.44331999E+02  d E =-.386103E-03  mag=    -0.0000
       N       E                     dE             d eps       ncg     rms          rms(c)
DAV:   1    -0.443320782171E+02   -0.79353E-04   -0.42993E-03  2128   0.182E-01    0.864E-02
DAV:   2    -0.443316415496E+02    0.43667E-03   -0.27508E-04  2256   0.432E-02    0.325E-02
DAV:   3    -0.443309120855E+02    0.72946E-03   -0.32554E-05  2288   0.158E-02    0.191E-02
DAV:   4    -0.443307352572E+02    0.17683E-03   -0.17912E-05  2448   0.874E-03    0.160E-02
DAV:   5    -0.443313103818E+02   -0.57512E-03   -0.13554E-06  2720   0.356E-03    0.711E-03
DAV:   6    -0.443317446902E+02   -0.43431E-03   -0.18188E-06  2496   0.332E-03    0.196E-03
DAV:   7    -0.443317505677E+02   -0.58775E-05   -0.12352E-07  1624   0.165E-03    0.790E-04
DAV:   8    -0.443317971929E+02   -0.46625E-04   -0.73297E-08  1520   0.160E-03    0.176E-04
DAV:   9    -0.443318078076E+02   -0.10615E-04   -0.96005E-09  1376   0.110E-03    0.180E-04
DAV:  10    -0.443318259987E+02   -0.18191E-04   -0.97987E-09  1400   0.109E-03    0.859E-05
DAV:  11    -0.443318282302E+02   -0.22315E-05   -0.14352E-08  1432   0.110E-03    0.845E-05
DAV:  12    -0.443318269150E+02    0.13151E-05   -0.22247E-08  1456   0.119E-03    0.716E-05
DAV:  13    -0.443318303174E+02   -0.34023E-05   -0.31493E-08  1568   0.128E-03    0.775E-05
DAV:  14    -0.443318335148E+02   -0.31974E-05   -0.30080E-08  1496   0.124E-03    0.662E-05
DAV:  15    -0.443318338857E+02   -0.37091E-06   -0.31061E-08  1488   0.128E-03    0.635E-05
DAV:  16    -0.443318334775E+02    0.40828E-06   -0.25675E-08  1472   0.120E-03    0.643E-05
DAV:  17    -0.443318328653E+02    0.61215E-06   -0.26688E-10  1384   0.102E-03    0.622E-05
DAV:  18    -0.443318329967E+02   -0.13139E-06    0.58483E-09  1376   0.926E-04    0.619E-05
DAV:  19    -0.443318329842E+02    0.12498E-07    0.17002E-08  1360   0.797E-04
  19 F= -.44331833E+02 E0= -.44331833E+02  d E =0.165936E-03  mag=    -0.0000
       N       E                     dE             d eps       ncg     rms          rms(c)
DAV:   1    -0.443318497020E+02   -0.16705E-04   -0.74611E-04  2112   0.783E-02    0.359E-02
DAV:   2    -0.443319988653E+02   -0.14916E-03   -0.47617E-05  2208   0.181E-02    0.135E-02
DAV:   3    -0.443322904137E+02   -0.29155E-03   -0.56621E-06  2112   0.684E-03    0.796E-03
DAV:   4    -0.443323629298E+02   -0.72516E-04   -0.31279E-06  2408   0.401E-03    0.660E-03
DAV:   5    -0.443321233441E+02    0.23959E-03   -0.20612E-07  1728   0.201E-03    0.304E-03
DAV:   6    -0.443319402551E+02    0.18309E-03   -0.47323E-07  2112   0.217E-03    0.926E-04
DAV:   7    -0.443319478910E+02   -0.76359E-05   -0.24985E-08  1392   0.124E-03    0.504E-04
DAV:   8    -0.443319204184E+02    0.27473E-04   -0.38908E-08  1480   0.136E-03    0.989E-05
DAV:   9    -0.443319154854E+02    0.49331E-05   -0.18831E-08  1432   0.120E-03    0.767E-05
DAV:  10    -0.443319138395E+02    0.16459E-05   -0.89448E-09  1416   0.107E-03    0.786E-05
DAV:  11    -0.443319092935E+02    0.45459E-05   -0.27775E-08  1472   0.121E-03    0.641E-05
DAV:  12    -0.443319101835E+02   -0.88996E-06   -0.14061E-08  1432   0.111E-03    0.638E-05
DAV:  13    -0.443319090545E+02    0.11290E-05   -0.25955E-08  1472   0.124E-03    0.625E-05
DAV:  14    -0.443319073585E+02    0.16960E-05   -0.29595E-08  1488   0.123E-03    0.615E-05
DAV:  15    -0.443319070432E+02    0.31529E-06   -0.38679E-09  1416   0.105E-03    0.617E-05
DAV:  16    -0.443319070476E+02   -0.44292E-08    0.36442E-09  1384   0.969E-04
  20 F= -.44331907E+02 E0= -.44331907E+02  d E =0.918722E-04  mag=     0.0000
       N       E                     dE             d eps       ncg     rms          rms(c)
DAV:   1    -0.443319078683E+02   -0.82512E-06   -0.54748E-04  2112   0.517E-02    0.928E-03
DAV:   2    -0.443319027693E+02    0.50990E-05   -0.22412E-05  2112   0.114E-02    0.541E-03
DAV:   3    -0.443319073431E+02   -0.45738E-05   -0.26732E-07  2024   0.191E-03    0.377E-03
DAV:   4    -0.443319162176E+02   -0.88745E-05   -0.33865E-07  1816   0.230E-03    0.797E-04
DAV:   5    -0.443319164899E+02   -0.27228E-06   -0.30321E-08  1536   0.116E-03    0.353E-04
DAV:   6    -0.443319160208E+02    0.46906E-06    0.15498E-08  1360   0.836E-04    0.287E-04
DAV:   7    -0.443319144513E+02    0.15695E-05    0.13463E-08  1360   0.875E-04    0.106E-04
DAV:   8    -0.443319139429E+02    0.50844E-06    0.21985E-08  1360   0.730E-04    0.673E-05
DAV:   9    -0.443319137657E+02    0.17716E-06    0.34066E-08  1344   0.525E-04    0.645E-05
DAV:  10    -0.443319133708E+02    0.39493E-06    0.27705E-08  1352   0.678E-04    0.629E-05
DAV:  11    -0.443319133333E+02    0.37526E-07    0.30253E-08  1344   0.601E-04
  21 F= -.44331913E+02 E0= -.44331913E+02  d E =-.628564E-05  mag=     0.0000
       N       E                     dE             d eps       ncg     rms          rms(c)
DAV:   1    -0.443319001180E+02    0.13253E-04   -0.49259E-03  2112   0.153E-01    0.278E-02
DAV:   2    -0.443318952014E+02    0.49166E-05   -0.20096E-04  2112   0.337E-02    0.163E-02
DAV:   3    -0.443319097658E+02   -0.14564E-04   -0.27020E-06  2448   0.481E-03    0.114E-02
DAV:   4    -0.443319371493E+02   -0.27383E-04   -0.24039E-06  1920   0.502E-03    0.247E-03
DAV:   5    -0.443319383251E+02   -0.11758E-05   -0.43087E-07  2048   0.221E-03    0.140E-03
DAV:   6    -0.443319369097E+02    0.14154E-05   -0.16838E-09  1400   0.107E-03    0.970E-04
DAV:   7    -0.443319316381E+02    0.52716E-05   -0.52600E-08  1440   0.130E-03    0.119E-04
DAV:   8    -0.443319309696E+02    0.66845E-06   -0.11657E-08  1392   0.110E-03    0.160E-04
DAV:   9    -0.443319303675E+02    0.60215E-06    0.98162E-09  1368   0.898E-04    0.778E-05
DAV:  10    -0.443319297180E+02    0.64948E-06    0.15712E-08  1360   0.826E-04    0.694E-05
DAV:  11    -0.443319293839E+02    0.33408E-06    0.25814E-08  1360   0.671E-04    0.715E-05
DAV:  12    -0.443319291878E+02    0.19607E-06    0.32475E-08  1344   0.562E-04    0.694E-05
DAV:  13    -0.443319283056E+02    0.88229E-06   -0.58035E-10  1376   0.976E-04    0.662E-05
DAV:  14    -0.443319286449E+02   -0.33929E-06    0.12060E-08  1368   0.788E-04    0.615E-05
DAV:  15    -0.443319287276E+02   -0.82722E-07    0.40511E-08  1344   0.380E-04
  22 F= -.44331929E+02 E0= -.44331929E+02  d E =-.216800E-04  mag=     0.0000
       N       E                     dE             d eps       ncg     rms          rms(c)
DAV:   1    -0.443319303427E+02   -0.16979E-05   -0.24617E-04  2112   0.407E-02    0.854E-03
DAV:   2    -0.443319242425E+02    0.61003E-05   -0.10218E-05  2112   0.847E-03    0.417E-03
DAV:   3    -0.443318951289E+02    0.29114E-04   -0.29519E-07  1896   0.215E-03    0.265E-03
DAV:   4    -0.443318626250E+02    0.32504E-04   -0.29332E-07  1792   0.243E-03    0.106E-03
DAV:   5    -0.443318734462E+02   -0.10821E-04   -0.44485E-08  1448   0.135E-03    0.725E-04
DAV:   6    -0.443318949129E+02   -0.21467E-04   -0.13234E-08  1376   0.116E-03    0.206E-04
DAV:   7    -0.443319027894E+02   -0.78765E-05    0.99114E-10  1360   0.997E-04    0.103E-04
DAV:   8    -0.443319042186E+02   -0.14292E-05    0.19670E-08  1360   0.735E-04    0.112E-04
DAV:   9    -0.443318990904E+02    0.51282E-05    0.18678E-08  1360   0.775E-04    0.189E-04
DAV:  10    -0.443319133561E+02   -0.14266E-04    0.13389E-08  1360   0.838E-04    0.733E-05
DAV:  11    -0.443319136276E+02   -0.27146E-06    0.34383E-08  1344   0.531E-04    0.827E-05
DAV:  12    -0.443319134677E+02    0.15986E-06    0.42693E-08  1328   0.317E-04    0.957E-05
DAV:  13    -0.443319145466E+02   -0.10788E-05    0.33566E-08  1352   0.527E-04    0.962E-05
DAV:  14    -0.443319169715E+02   -0.24249E-05    0.26308E-08  1360   0.662E-04    0.834E-05
DAV:  15    -0.443319179407E+02   -0.96924E-06    0.18212E-08  1360   0.754E-04    0.805E-05
DAV:  16    -0.443319182140E+02   -0.27333E-06    0.41744E-08  1360   0.337E-04    0.817E-05
DAV:  17    -0.443319180936E+02    0.12047E-06    0.43286E-08  1344   0.314E-04    0.866E-05
DAV:  18    -0.443319196648E+02   -0.15712E-05    0.28435E-08  1352   0.650E-04    0.747E-05
DAV:  19    -0.443319210302E+02   -0.13655E-05    0.33238E-08  1344   0.554E-04    0.676E-05
DAV:  20    -0.443319213954E+02   -0.36517E-06    0.40346E-08  1344   0.402E-04    0.671E-05
DAV:  21    -0.443319215846E+02   -0.18920E-06    0.43553E-08  1344   0.297E-04    0.669E-05
DAV:  22    -0.443319216313E+02   -0.46710E-07    0.45797E-08  1288   0.197E-04
  23 F= -.44331922E+02 E0= -.44331922E+02  d E =0.709625E-05  mag=     0.0000
       N       E                     dE             d eps       ncg     rms          rms(c)
DAV:   1    -0.443319259739E+02   -0.43893E-05   -0.22083E-03  2112   0.119E-01    0.256E-02
DAV:   2    -0.443319098853E+02    0.16089E-04   -0.91684E-05  2176   0.249E-02    0.125E-02
DAV:   3    -0.443318220555E+02    0.87830E-04   -0.29765E-06  2640   0.560E-03    0.796E-03
DAV:   4    -0.443317297727E+02    0.92283E-04   -0.22175E-06  2272   0.536E-03    0.327E-03
DAV:   5    -0.443317734097E+02   -0.43637E-04   -0.53107E-07  2128   0.233E-03    0.230E-03
DAV:   6    -0.443318451849E+02   -0.71775E-04   -0.48446E-08  1552   0.146E-03    0.750E-04
DAV:   7    -0.443318827867E+02   -0.37602E-04   -0.19768E-08  1376   0.123E-03    0.357E-04
DAV:   8    -0.443318835201E+02   -0.73340E-06    0.67333E-09  1360   0.961E-04    0.228E-04
DAV:   9    -0.443318939165E+02   -0.10396E-04   -0.15869E-08  1432   0.115E-03    0.188E-04
DAV:  10    -0.443318958203E+02   -0.19038E-05   -0.10187E-08  1424   0.108E-03    0.121E-04
DAV:  11    -0.443318964433E+02   -0.62304E-06    0.27000E-08  1352   0.663E-04    0.107E-04
DAV:  12    -0.443318981681E+02   -0.17248E-05    0.34408E-08  1344   0.535E-04    0.950E-05
DAV:  13    -0.443319021622E+02   -0.39941E-05    0.10665E-08  1360   0.909E-04    0.794E-05
DAV:  14    -0.443319062672E+02   -0.41049E-05    0.14324E-08  1360   0.831E-04    0.737E-05
DAV:  15    -0.443319071326E+02   -0.86546E-06    0.22497E-08  1360   0.704E-04    0.664E-05
DAV:  16    -0.443319064722E+02    0.66040E-06    0.23778E-08  1360   0.674E-04    0.620E-05
DAV:  17    -0.443319066005E+02   -0.12824E-06    0.25902E-08  1360   0.680E-04    0.616E-05
DAV:  18    -0.443319072795E+02   -0.67898E-06    0.20473E-08  1360   0.735E-04    0.620E-05
DAV:  19    -0.443319074935E+02   -0.21402E-06    0.36327E-08  1344   0.485E-04    0.619E-05
DAV:  20    -0.443319080835E+02   -0.59007E-06    0.23190E-08  1360   0.714E-04    0.612E-05
DAV:  21    -0.443319083786E+02   -0.29510E-06    0.33822E-08  1344   0.537E-04    0.612E-05
DAV:  22    -0.443319084848E+02   -0.10619E-06    0.34108E-08  1344   0.547E-04    0.611E-05
DAV:  23    -0.443319085319E+02   -0.47070E-07    0.33104E-08  1344   0.538E-04
  24 F= -.44331909E+02 E0= -.44331909E+02  d E =0.201957E-04  mag=    -0.0000
       N       E                     dE             d eps       ncg     rms          rms(c)
DAV:   1    -0.443319124891E+02   -0.40043E-05   -0.88212E-03  2112   0.235E-01    0.513E-02
DAV:   2    -0.443318817752E+02    0.30714E-04   -0.36621E-04  2192   0.495E-02    0.250E-02
DAV:   3    -0.443317017006E+02    0.18007E-03   -0.11825E-05  2848   0.107E-02    0.159E-02
DAV:   4    -0.443315144498E+02    0.18725E-03   -0.86202E-06  2304   0.997E-03    0.658E-03
DAV:   5    -0.443316034203E+02   -0.88970E-04   -0.20702E-06  2320   0.408E-03    0.467E-03
DAV:   6    -0.443317494704E+02   -0.14605E-03   -0.19582E-07  1712   0.202E-03    0.145E-03
DAV:   7    -0.443318231888E+02   -0.73718E-04   -0.10229E-07  1592   0.176E-03    0.692E-04
DAV:   8    -0.443318318138E+02   -0.86250E-05   -0.43984E-08  1560   0.144E-03    0.384E-04
DAV:   9    -0.443318519768E+02   -0.20163E-04   -0.40963E-08  1472   0.137E-03    0.253E-04
DAV:  10    -0.443318545387E+02   -0.25619E-05   -0.28849E-08  1472   0.119E-03    0.172E-04
DAV:  11    -0.443318579572E+02   -0.34184E-05    0.50108E-09  1360   0.923E-04    0.106E-04
DAV:  12    -0.443318639005E+02   -0.59433E-05    0.41261E-09  1368   0.936E-04    0.686E-05
DAV:  13    -0.443318639709E+02   -0.70391E-07    0.77901E-09  1368   0.848E-04
  25 F= -.44331864E+02 E0= -.44331864E+02  d E =0.647567E-04  mag=    -0.0000
       N       E                     dE             d eps       ncg     rms          rms(c)
DAV:   1    -0.443318672675E+02   -0.33670E-05   -0.97454E-04  2112   0.794E-02    0.170E-02
DAV:   2    -0.443318814808E+02   -0.14213E-04   -0.40537E-05  2128   0.166E-02    0.834E-03
DAV:   3    -0.443319400062E+02   -0.58525E-04   -0.13118E-06  2576   0.383E-03    0.531E-03
DAV:   4    -0.443320040368E+02   -0.64031E-04   -0.97707E-07  2192   0.369E-03    0.218E-03
DAV:   5    -0.443319775165E+02    0.26520E-04   -0.22670E-07  1848   0.183E-03    0.145E-03
DAV:   6    -0.443319317952E+02    0.45721E-04   -0.30829E-08  1448   0.137E-03    0.463E-04
DAV:   7    -0.443319102019E+02    0.21593E-04   -0.18320E-08  1408   0.119E-03    0.193E-04
DAV:   8    -0.443319089440E+02    0.12579E-05    0.55066E-09  1360   0.958E-04    0.143E-04
DAV:   9    -0.443318994907E+02    0.94533E-05   -0.14947E-08  1440   0.114E-03    0.879E-05
DAV:  10    -0.443318972532E+02    0.22375E-05   -0.51762E-10  1384   0.992E-04    0.856E-05
DAV:  11    -0.443318973719E+02   -0.11869E-06    0.19154E-08  1360   0.731E-04    0.769E-05
DAV:  12    -0.443318944301E+02    0.29418E-05    0.24293E-08  1360   0.685E-04    0.674E-05
DAV:  13    -0.443318931976E+02    0.12325E-05    0.21381E-08  1360   0.696E-04    0.692E-05
DAV:  14    -0.443318932449E+02   -0.47336E-07    0.45471E-08  1472   0.217E-04
  26 F= -.44331893E+02 E0= -.44331893E+02  d E =0.354826E-04  mag=     0.0000
       N       E                     dE             d eps       ncg     rms          rms(c)
DAV:   1    -0.443318923262E+02    0.87145E-06   -0.10965E-03  2112   0.897E-02    0.171E-02
DAV:   2    -0.443318809449E+02    0.11381E-04   -0.51625E-05  2128   0.206E-02    0.877E-03
DAV:   3    -0.443319300432E+02   -0.49098E-04   -0.12151E-06  2640   0.381E-03    0.567E-03
DAV:   4    -0.443319819558E+02   -0.51913E-04   -0.60407E-07  2016   0.326E-03    0.214E-03
DAV:   5    -0.443319826967E+02   -0.74094E-06   -0.21561E-07  1792   0.196E-03    0.114E-03
DAV:   6    -0.443319640800E+02    0.18617E-04   -0.19585E-08  1480   0.126E-03    0.683E-04
DAV:   7    -0.443319350164E+02    0.29064E-04   -0.26631E-08  1440   0.123E-03    0.167E-04
DAV:   8    -0.443319345165E+02    0.49985E-06   -0.14692E-08  1440   0.112E-03    0.142E-04
DAV:   9    -0.443319328456E+02    0.16710E-05   -0.81676E-09  1440   0.102E-03    0.961E-05
DAV:  10    -0.443319288056E+02    0.40399E-05   -0.44640E-08  1528   0.128E-03    0.692E-05
DAV:  11    -0.443319276562E+02    0.11494E-05   -0.21538E-08  1480   0.109E-03    0.653E-05
DAV:  12    -0.443319265640E+02    0.10922E-05    0.13722E-08  1360   0.850E-04    0.625E-05
DAV:  13    -0.443319252259E+02    0.13380E-05   -0.32384E-10  1392   0.972E-04    0.615E-05
DAV:  14    -0.443319258019E+02   -0.57603E-06    0.20016E-08  1360   0.703E-04    0.621E-05
DAV:  15    -0.443319254078E+02    0.39416E-06    0.20178E-08  1360   0.772E-04    0.617E-05
DAV:  16    -0.443319249003E+02    0.50749E-06    0.23712E-08  1360   0.720E-04    0.615E-05
DAV:  17    -0.443319245688E+02    0.33146E-06    0.16684E-08  1360   0.811E-04    0.612E-05
DAV:  18    -0.443319242326E+02    0.33623E-06    0.21131E-08  1360   0.735E-04    0.611E-05
DAV:  19    -0.443319241730E+02    0.59570E-07    0.35027E-08  1344   0.491E-04
  27 F= -.44331924E+02 E0= -.44331924E+02  d E =-.309281E-04  mag=    -0.0000
       N       E                     dE             d eps       ncg     rms          rms(c)
DAV:   1    -0.443319241901E+02    0.42497E-07    0.14783E-08  1344   0.685E-04    0.848E-05
DAV:   2    -0.443319240007E+02    0.18936E-06    0.32550E-08  1344   0.515E-04    0.683E-05
DAV:   3    -0.443319242085E+02   -0.20774E-06    0.33852E-08  1344   0.497E-04    0.656E-05
DAV:   4    -0.443319243324E+02   -0.12389E-06    0.27009E-08  1352   0.655E-04    0.634E-05
DAV:   5    -0.443319242956E+02    0.36798E-07    0.26029E-08  1360   0.645E-04
  28 F= -.44331924E+02 E0= -.44331924E+02  d E =-.310506E-04  mag=     0.0000
       N       E                     dE             d eps       ncg     rms          rms(c)
DAV:   1    -0.443319242071E+02    0.12530E-06   -0.53765E-08  1408   0.101E-03    0.146E-04
DAV:   2    -0.443319239035E+02    0.30362E-06    0.27073E-08  1344   0.576E-04    0.893E-05
DAV:   3    -0.443319243284E+02   -0.42491E-06    0.35551E-08  1344   0.448E-04    0.798E-05
DAV:   4    -0.443319246549E+02   -0.32653E-06    0.25530E-08  1360   0.655E-04    0.679E-05
DAV:   5    -0.443319247507E+02   -0.95844E-07    0.22367E-08  1360   0.699E-04
  29 F= -.44331925E+02 E0= -.44331925E+02  d E =-.315058E-04  mag=     0.0000
       N       E                     dE             d eps       ncg     rms          rms(c)
DAV:   1    -0.443319246725E+02   -0.17635E-07   -0.36202E-07  1824   0.182E-03    0.336E-04
DAV:   2    -0.443319239527E+02    0.71986E-06    0.18820E-08  1344   0.741E-04    0.156E-04
DAV:   3    -0.443319247501E+02   -0.79742E-06    0.36279E-08  1344   0.472E-04    0.118E-04
DAV:   4    -0.443319257335E+02   -0.98340E-06    0.23668E-08  1360   0.715E-04    0.707E-05
DAV:   5    -0.443319257880E+02   -0.54522E-07    0.13105E-08  1360   0.800E-04
  30 F= -.44331926E+02 E0= -.44331926E+02  d E =-.325431E-04  mag=    -0.0000
       N       E                     dE             d eps       ncg     rms          rms(c)
DAV:   1    -0.443319256070E+02    0.12645E-06   -0.20011E-06  2048   0.511E-03    0.649E-04
DAV:   2    -0.443319248365E+02    0.77051E-06   -0.41481E-08  1360   0.117E-03    0.294E-04
DAV:   3    -0.443319264841E+02   -0.16475E-05    0.23723E-08  1344   0.691E-04    0.214E-04
DAV:   4    -0.443319282813E+02   -0.17972E-05    0.63618E-09  1368   0.917E-04    0.967E-05
DAV:   5    -0.443319284296E+02   -0.14828E-06    0.39877E-09  1368   0.932E-04    0.689E-05
DAV:   6    -0.443319280545E+02    0.37513E-06    0.14617E-08  1360   0.757E-04    0.658E-05
DAV:   7    -0.443319272749E+02    0.77952E-06    0.34539E-08  1344   0.490E-04    0.623E-05
DAV:   8    -0.443319269814E+02    0.29350E-06    0.27314E-08  1360   0.606E-04    0.615E-05
DAV:   9    -0.443319268892E+02    0.92243E-07    0.31715E-08  1344   0.504E-04
  31 F= -.44331927E+02 E0= -.44331927E+02  d E =-.336443E-04  mag=    -0.0000
       N       E                     dE             d eps       ncg     rms          rms(c)
DAV:   1    -0.443319267141E+02    0.26736E-06   -0.62376E-06  2112   0.671E-03    0.130E-03
DAV:   2    -0.443319259393E+02    0.77484E-06   -0.26123E-07  1808   0.178E-03    0.653E-04
DAV:   3    -0.443319295873E+02   -0.36481E-05    0.27490E-08  1344   0.678E-04    0.439E-04
DAV:   4    -0.443319342663E+02   -0.46790E-05    0.18914E-08  1360   0.814E-04    0.140E-04
DAV:   5    -0.443319338764E+02    0.38991E-06    0.24142E-08  1360   0.680E-04    0.911E-05
DAV:   6    -0.443319323567E+02    0.15197E-05    0.32369E-08  1344   0.553E-04    0.739E-05
DAV:   7    -0.443319309584E+02    0.13983E-05    0.21426E-08  1360   0.737E-04    0.641E-05
DAV:   8    -0.443319306409E+02    0.31745E-06    0.18793E-08  1360   0.707E-04    0.624E-05
DAV:   9    -0.443319303219E+02    0.31902E-06    0.35913E-08  1344   0.488E-04    0.616E-05
DAV:  10    -0.443319296591E+02    0.66278E-06    0.31060E-08  1352   0.578E-04    0.613E-05
DAV:  11    -0.443319297342E+02   -0.75073E-07    0.31069E-08  1352   0.547E-04
  32 F= -.44331930E+02 E0= -.44331930E+02  d E =-.364893E-04  mag=    -0.0000
       N       E                     dE             d eps       ncg     rms          rms(c)
DAV:   1    -0.443319296274E+02    0.31732E-07   -0.25302E-05  2112   0.138E-02    0.259E-03
DAV:   2    -0.443319280986E+02    0.15288E-05   -0.11812E-06  2112   0.335E-03    0.133E-03
DAV:   3    -0.443319356968E+02   -0.75982E-05    0.67561E-09  1360   0.927E-04    0.876E-04
DAV:   4    -0.443319455140E+02   -0.98172E-05   -0.13481E-08  1384   0.116E-03    0.250E-04
DAV:   5    -0.443319449911E+02    0.52291E-06    0.13721E-08  1360   0.825E-04    0.155E-04
DAV:   6    -0.443319424334E+02    0.25577E-05    0.26507E-08  1360   0.635E-04    0.114E-04
DAV:   7    -0.443319384055E+02    0.40279E-05    0.15315E-08  1360   0.824E-04    0.675E-05
DAV:   8    -0.443319381587E+02    0.24680E-06    0.75817E-09  1360   0.825E-04    0.646E-05
DAV:   9    -0.443319376926E+02    0.46609E-06    0.28298E-08  1352   0.591E-04    0.636E-05
DAV:  10    -0.443319366682E+02    0.10244E-05    0.26963E-08  1360   0.627E-04    0.619E-05
DAV:  11    -0.443319362983E+02    0.36990E-06    0.73032E-09  1368   0.830E-04    0.616E-05
DAV:  12    -0.443319359254E+02    0.37290E-06    0.18390E-08  1360   0.685E-04    0.613E-05
DAV:  13    -0.443319355367E+02    0.38871E-06    0.34823E-08  1344   0.495E-04    0.611E-05
DAV:  14    -0.443319352952E+02    0.24151E-06    0.36377E-08  1344   0.460E-04    0.611E-05
DAV:  15    -0.443319351978E+02    0.97329E-07    0.45014E-08  1312   0.229E-04
  33 F= -.44331935E+02 E0= -.44331935E+02  d E =-.419529E-04  mag=    -0.0000
       N       E                     dE             d eps       ncg     rms          rms(c)
DAV:   1    -0.443319347940E+02    0.50116E-06   -0.10088E-04  2112   0.276E-02    0.518E-03
DAV:   2    -0.443319315705E+02    0.32236E-05   -0.47344E-06  2112   0.634E-03    0.266E-03
DAV:   3    -0.443319469667E+02   -0.15396E-04   -0.66805E-08  1376   0.149E-03    0.175E-03
DAV:   4    -0.443319673057E+02   -0.20339E-04   -0.10702E-07  1536   0.173E-03    0.502E-04
DAV:   5    -0.443319663407E+02    0.96496E-06   -0.77993E-09  1360   0.108E-03    0.294E-04
DAV:   6    -0.443319614666E+02    0.48741E-05    0.18952E-08  1360   0.792E-04    0.204E-04
DAV:   7    -0.443319524659E+02    0.90007E-05    0.35061E-09  1368   0.962E-04    0.770E-05
DAV:   8    -0.443319523687E+02    0.97294E-07    0.31361E-09  1368   0.923E-04
  34 F= -.44331952E+02 E0= -.44331952E+02  d E =-.591237E-04  mag=     0.0000
