 vasp.5.4.1 24Jun15 (build Feb  5 2017 10:03:11) complex                         
 executed on           IFC91_ompi date 2018.12.17  02:48:16
 running on   16 total cores
 distrk:  each k-point on   16 cores,    1 groups
 distr:  one band on NCORES_PER_BAND=   2 cores,    8 groups


--------------------------------------------------------------------------------------------------------


 INCAR:
 POTCAR:    PAW_PBE Y_sv 25May2007                
 POTCAR:    PAW_PBE Br 06Sep2000                  

 ----------------------------------------------------------------------------- 
|                                                                             |
|  ADVICE TO THIS USER RUNNING 'VASP/VAMP'   (HEAR YOUR MASTER'S VOICE ...):  |
|                                                                             |
|      You have switched on vdW-DFT.                                          |
|      This routine was written and supplied by Jiri Klimes.                  |
|      We recommed that you carefully read and cite the following             |
|      publication                                                            |
|      J. Klimes, D.R. Bowler, A. Michelides                                  |
|        J. Phys.: Cond Matt. 22 022201 (2010)                                |
|      J. Klimes, D.R. Bowler, A. Michelides                                  |
|        Phys. Rev. B. 83, 195131 (2011)                                      |
|      and references therein.                                                |
|                                                                             |
 ----------------------------------------------------------------------------- 

 POTCAR:    PAW_PBE Y_sv 25May2007                
   VRHFIN =Y: 4s4p5s4d                                                          
   LEXCH  = PE                                                                  
   EATOM  =  1046.9140 eV,   76.9460 Ry                                         
                                                                                
   TITEL  = PAW_PBE Y_sv 25May2007                                              
   LULTRA =        F    use ultrasoft PP ?                                      
   IUNSCR =        1    unscreen: 0-lin 1-nonlin 2-no                           
   RPACOR =    2.200    partial core radius                                     
   POMASS =   88.906; ZVAL   =   11.000    mass and valenz                      
   RCORE  =    2.800    outmost cutoff radius                                   
   RWIGS  =    3.430; RWIGS  =    1.815    wigner-seitz radius (au A)           
   ENMAX  =  202.626; ENMIN  =  151.970 eV                                      
   RCLOC  =    2.212    cutoff for local pot                                    
   LCOR   =        T    correct aug charges                                     
   LPAW   =        T    paw PP                                                  
   EAUG   =  470.889                                                            
   DEXC   =    0.000                                                            
   RMAX   =    2.863    core radius for proj-oper                               
   RAUG   =    1.300    factor for augmentation sphere                          
   RDEP   =    2.926    radius for radial grids                                 
   RDEPT  =    2.280    core radius for aug-charge                              
                                                                                
   Atomic configuration                                                         
   11 entries                                                                   
     n  l   j            E        occ.                                          
     1  0  0.50    -16863.0720   2.0000                                         
     2  0  0.50     -2309.2881   2.0000                                         
     2  1  1.50     -2055.5536   6.0000                                         
     3  0  0.50      -367.1837   2.0000                                         
     3  1  1.50      -284.8912   6.0000                                         
     3  2  2.50      -149.4324  10.0000                                         
     4  0  0.50       -46.3345   2.0000                                         
     5  0  0.50        -3.6387   1.0000                                         
     4  1  1.50       -26.3769   6.0000                                         
     4  2  2.50        -1.6291   2.0000                                         
     4  3  2.50        -1.3606   0.0000                                         
   Description                                                                  
     l       E           TYP  RCUT    TYP  RCUT                                 
     0    -46.3344714     23  2.600                                             
     0     -3.6387002     23  2.700                                             
     1    -26.3769044     23  2.600                                             
     1    -27.7374870     23  2.600                                             
     2     -1.6291019     23  2.600                                             
     2      0.1354037     23  2.600                                             
     3     -1.3605826     23  2.800                                             
  local pseudopotential read in
  partial core-charges read in
  partial kinetic energy density read in
  atomic valenz-charges read in
  non local Contribution for L=           0  read in
    real space projection operators read in
  non local Contribution for L=           0  read in
    real space projection operators read in
  non local Contribution for L=           1  read in
    real space projection operators read in
  non local Contribution for L=           1  read in
    real space projection operators read in
  non local Contribution for L=           2  read in
    real space projection operators read in
  non local Contribution for L=           2  read in
    real space projection operators read in
  non local Contribution for L=           3  read in
    real space projection operators read in
    PAW grid and wavefunctions read in

   number of l-projection  operators is LMAX  =           7
   number of lm-projection operators is LMMAX =          25

 POTCAR:    PAW_PBE Br 06Sep2000                  
   VRHFIN =Br: s2p5                                                             
   LEXCH  = PE                                                                  
   EATOM  =   368.4488 eV,   27.0802 Ry                                         
                                                                                
   TITEL  = PAW_PBE Br 06Sep2000                                                
   LULTRA =        F    use ultrasoft PP ?                                      
   IUNSCR =        1    unscreen: 0-lin 1-nonlin 2-no                           
   RPACOR =    1.900    partial core radius                                     
   POMASS =   79.904; ZVAL   =    7.000    mass and valenz                      
   RCORE  =    2.100    outmost cutoff radius                                   
   RWIGS  =    2.200; RWIGS  =    1.164    wigner-seitz radius (au A)           
   ENMAX  =  216.285; ENMIN  =  162.214 eV                                      
   ICORE  =        3    local potential                                         
   LCOR   =        T    correct aug charges                                     
   LPAW   =        T    paw PP                                                  
   EAUG   =  503.852                                                            
   DEXC   =    0.000                                                            
   RMAX   =    2.139    core radius for proj-oper                               
   RAUG   =    1.300    factor for augmentation sphere                          
   RDEP   =    2.186    radius for radial grids                                 
   RDEPT  =    1.890    core radius for aug-charge                              
                                                                                
   Atomic configuration                                                         
   10 entries                                                                   
     n  l   j            E        occ.                                          
     1  0  0.50    -13316.2796   2.0000                                         
     2  0  0.50     -1732.8239   2.0000                                         
     2  1  1.50     -1528.2193   6.0000                                         
     3  0  0.50      -238.0460   2.0000                                         
     3  1  1.50      -173.4609   6.0000                                         
     3  2  2.50       -66.7132  10.0000                                         
     4  0  0.50       -20.1334   2.0000                                         
     4  1  0.50        -7.8591   5.0000                                         
     4  2  2.50        -8.1635   0.0000                                         
     4  3  2.50        -8.1635   0.0000                                         
   Description                                                                  
     l       E           TYP  RCUT    TYP  RCUT                                 
     0    -20.1333652     23  2.100                                             
     0    -21.4939478     23  2.100                                             
     1     -7.8591052     23  2.100                                             
     1     -3.1608434     23  2.100                                             
     2     -8.1634956     23  2.100                                             
     3     -1.3605826      7  2.100                                             
  local pseudopotential read in
  partial core-charges read in
  partial kinetic energy density read in
  atomic valenz-charges read in
  non local Contribution for L=           0  read in
    real space projection operators read in
  non local Contribution for L=           0  read in
    real space projection operators read in
  non local Contribution for L=           1  read in
    real space projection operators read in
  non local Contribution for L=           1  read in
    real space projection operators read in
  non local Contribution for L=           2  read in
    real space projection operators read in
    PAW grid and wavefunctions read in

   number of l-projection  operators is LMAX  =           5
   number of lm-projection operators is LMMAX =          13

 WARNING: PSMAXN for non-local potential too small
          PSMAXN should be >   13.554559223799082       NTYP=           1

 ----------------------------------------------------------------------------- 
|                                                                             |
|  ADVICE TO THIS USER RUNNING 'VASP/VAMP'   (HEAR YOUR MASTER'S VOICE ...):  |
|                                                                             |
|      You enforced a specific xc-type in the INCAR file,                     |
|      a different type was found on the POTCAR file                          |
|          I HOPE YOU KNOW, WHAT YOU ARE  DOING                               |
|                                                                             |
 ----------------------------------------------------------------------------- 

  PAW_PBE Y_sv 25May2007                :
 energy of atom  1       EATOM=-1046.9140
 kinetic energy error for atom=    0.0003 (will be added to EATOM!!)
  PAW_PBE Br 06Sep2000                  :
 energy of atom  2       EATOM= -368.4488
 kinetic energy error for atom=    0.0005 (will be added to EATOM!!)


 POSCAR: Surf-mp-754815                          
  positions in direct lattice
  velocities in cartesian coordinates
 exchange correlation table for  LEXCH =       42
   RHO(1)=    0.500       N(1)  =     2000
   RHO(2)=  100.500       N(2)  =     4000



--------------------------------------------------------------------------------------------------------


 ion  position               nearest neighbor table
   1  0.033  0.624  0.187-  15 2.80   5 2.80  14 2.80   7 2.80   9 2.80  13 2.80   2 4.09   4 4.09
                             4 4.09
   2  0.033  0.958  0.187-  16 2.80   6 2.80  14 2.80   7 2.80   8 2.80  12 2.80   1 4.09   3 4.09
                             3 4.09
   3  0.533  0.124  0.187-   8 2.80  12 2.80  11 2.80  10 2.80  16 2.80   6 2.80   4 4.09   2 4.09
                             2 4.09
   4  0.533  0.458  0.187-   9 2.80  13 2.80  11 2.80  10 2.80  15 2.80   5 2.80   3 4.09   1 4.09
                             1 4.09
   5  0.288  0.466  0.251-   1 2.80   4 2.80
   6  0.288  0.116  0.251-   2 2.80   3 2.80
   7  0.260  0.791  0.251-   2 2.80   1 2.80
   8  0.788  0.966  0.251-   3 2.80   2 2.80
   9  0.788  0.616  0.251-   4 2.80   1 2.80
  10  0.760  0.291  0.251-   4 2.80   3 2.80
  11  0.306  0.291  0.123-   4 2.80   3 2.80
  12  0.278  0.966  0.123-   3 2.80   2 2.80
  13  0.278  0.616  0.123-   4 2.80   1 2.80
  14  0.806  0.791  0.123-   2 2.80   1 2.80
  15  0.778  0.466  0.123-   1 2.80   4 2.80
  16  0.778  0.116  0.123-   2 2.80   3 2.80

  LATTYP: Found a simple monoclinic cell.
 ALAT       =    25.5604351874
 B/A-ratio  =     0.4796959431
 C/A-ratio  =     1.9610744255
 COS(beta)  =    -0.9903691996
  
  Lattice vectors:
  
 A1 = (  -5.3231425839,   0.0000000000, -25.0000000000)
 A2 = (   0.0000000000, -12.2612370628,   0.0000000000)
 A3 = (   3.5506942880,   0.0000000000,  50.0000000000)


Analysis of symmetry for initial positions (statically):
=====================================================================
 Subroutine PRICEL returns following result:
 
  LATTYP: Found a base centered monoclinic cell.
 ALAT       =     7.0955766886
 B/A-ratio  =     1.7280113514
 C/A-ratio  =     3.9340821950
 COS(beta)  =    -0.2228305729
  
  Lattice vectors:
  
 A1 = (   3.5477883443,   6.1306185314,   0.0000000000)
 A2 = (   3.5477883443,  -6.1306185314,   0.0000000000)
 A3 = ( -12.4186908901,  -0.0000000000, -25.0000000000)
 
   2 primitive cells build up your supercell.
 

 Routine SETGRP: Setting up the symmetry group for a 
 simple monoclinic supercell.


 Subroutine GETGRP returns: Found  4 space group operations
 (whereof  1 operations were pure point group operations)
 out of a pool of  4 trial point group operations.


The static configuration has the point symmetry C_1 .
 The point group associated with its full space group is C_2h.


Analysis of symmetry for dynamics (positions and initial velocities):
=====================================================================
 Subroutine PRICEL returns following result:
 
  LATTYP: Found a base centered monoclinic cell.
 ALAT       =     7.0955766886
 B/A-ratio  =     1.7280113514
 C/A-ratio  =     3.9340821950
 COS(beta)  =    -0.2228305729
  
  Lattice vectors:
  
 A1 = (   3.5477883443,   6.1306185314,   0.0000000000)
 A2 = (   3.5477883443,  -6.1306185314,   0.0000000000)
 A3 = ( -12.4186908901,  -0.0000000000, -25.0000000000)
 
   2 primitive cells build up your supercell.
 

 Routine SETGRP: Setting up the symmetry group for a 
 simple monoclinic supercell.


 Subroutine GETGRP returns: Found  4 space group operations
 (whereof  1 operations were pure point group operations)
 out of a pool of  4 trial point group operations.


The dynamic configuration has the point symmetry C_1 .
 The point group associated with its full space group is C_2h.


Analysis of magnetic symmetry:
=====================================================================
 Subroutine PRICEL returns following result:
 
  LATTYP: Found a base centered monoclinic cell.
 ALAT       =     7.0955766886
 B/A-ratio  =     1.7280113514
 C/A-ratio  =     3.9340821950
 COS(beta)  =    -0.2228305729
  
  Lattice vectors:
  
 A1 = (   3.5477883443,   6.1306185314,   0.0000000000)
 A2 = (   3.5477883443,  -6.1306185314,   0.0000000000)
 A3 = ( -12.4186908901,  -0.0000000000, -25.0000000000)
 
   2 primitive cells build up your supercell.
 

 Subroutine MAGSYM returns: Found  4 space group operations
 (whereof  1 operations were pure point group operations)
 out of a pool of  4 trial space group operations
 (whereof  1 operations were pure point group operations)
 and found also     2 'primitive' translations


The magnetic configuration has the point symmetry C_1 .
 The point group associated with its full space group is C_2h.


 KPOINTS: Automatic kpoint scheme                 

Automatic generation of k-mesh.
Space group operators:
 irot       det(A)        alpha          n_x          n_y          n_z        tau_x        tau_y        tau_z
    1     1.000000     0.000000     1.000000     0.000000     0.000000    -0.000000    -0.000000    -0.000000
    2    -1.000000     0.000000     1.000000     0.000000     0.000000    -1.433305     0.081506    -0.625766
    3     1.000000   180.000000     0.000000     1.000000     0.000000    -0.933302    -0.000000    -0.625766
    4    -1.000000   180.000000     0.000000     1.000000     0.000000     0.499999     0.081506    -0.000000
 
 Subroutine IBZKPT returns following result:
 ===========================================
 
 Found      6 irreducible k-points:
 
 Following reciprocal coordinates:
            Coordinates               Weight
  0.000000  0.000000  0.000000      1.000000
  0.250000  0.000000  0.000000      2.000000
  0.500000  0.000000  0.000000      1.000000
  0.000000  0.500000  0.000000      1.000000
  0.250000  0.500000  0.000000      2.000000
  0.500000  0.500000  0.000000      1.000000
 
 Following cartesian coordinates:
            Coordinates               Weight
  0.000000  0.000000  0.000000      1.000000
  0.035233  0.000000  0.012498      2.000000
  0.070466  0.000000  0.024996      1.000000
  0.000000  0.040779  0.000000      1.000000
  0.035233  0.040779  0.012498      2.000000
  0.070466  0.040779  0.024996      1.000000
 


--------------------------------------------------------------------------------------------------------




 Dimension of arrays:
   k-points           NKPTS =      6   k-points in BZ     NKDIM =      6   number of bands    NBANDS=     88
   number of dos      NEDOS =   5000   number of ions     NIONS =     16
   non local maximal  LDIM  =      7   non local SUM 2l+1 LMDIM =     25
   total plane-waves  NPLWV = ******
   max r-space proj   IRMAX =      1   max aug-charges    IRDMAX=  55176
   dimension x,y,z NGX =    64 NGY =  108 NGZ =  240
   dimension x,y,z NGXF=   128 NGYF=  216 NGZF=  480
   support grid    NGXF=   128 NGYF=  216 NGZF=  480
   ions per type =               4  12
 NGX,Y,Z   is equivalent  to a cutoff of  14.99, 14.64, 15.04 a.u.
 NGXF,Y,Z  is equivalent  to a cutoff of  29.99, 29.29, 30.08 a.u.


 I would recommend the setting:
   dimension x,y,z NGX =    61 NGY =  106 NGZ =  229
 SYSTEM =  unknown system                          
 POSCAR =  Surf-mp-754815                          

 Startparameter for this run:
   NWRITE =      2    write-flag & timer
   PREC   = accura    normal or accurate (medium, high low for compatibility)
   ISTART =      0    job   : 0-new  1-cont  2-samecut
   ICHARG =      2    charge: 1-file 2-atom 10-const
   ISPIN  =      2    spin polarized calculation?
   LNONCOLLINEAR =      F non collinear calculations
   LSORBIT =      F    spin-orbit coupling
   INIWAV =      1    electr: 0-lowe 1-rand  2-diag
   LASPH  =      F    aspherical Exc in radial PAW
   METAGGA=      F    non-selfconsistent MetaGGA calc.

 Electronic Relaxation 1
   ENCUT  =  700.0 eV  51.45 Ry    7.17 a.u.  15.31 26.45 57.22*2*pi/ulx,y,z
   ENINI  =  700.0     initial cutoff
   ENAUG  =  503.9 eV  augmentation charge cutoff
   NELM   =    500;   NELMIN=  2; NELMDL=  0     # of ELM steps 
   EDIFF  = 0.1E-06   stopping-criterion for ELM
   LREAL  =      F    real-space projection
   NLSPLINE    = F    spline interpolate recip. space projectors
   LCOMPAT=      F    compatible to vasp.4.4
   GGA_COMPAT  = T    GGA compatible to vasp.4.4-vasp.4.6
   LMAXPAW     = -100 max onsite density
   LMAXMIX     =    2 max onsite mixed and CHGCAR
   VOSKOWN=      0    Vosko Wilk Nusair interpolation
   ROPT   =    0.00000   0.00000
 Ionic relaxation
   EDIFFG = -.1E-02   stopping-criterion for IOM
   NSW    =    500    number of steps for IOM
   NBLOCK =      1;   KBLOCK =    500    inner block; outer block 
   IBRION =      2    ionic relax: 0-MD 1-quasi-New 2-CG
   NFREE  =      1    steps in history (QN), initial steepest desc. (CG)
   ISIF   =      3    stress and relaxation
   IWAVPR =     11    prediction:  0-non 1-charg 2-wave 3-comb
   ISYM   =      2    0-nonsym 1-usesym 2-fastsym
   LCORR  =      T    Harris-Foulkes like correction to forces

   POTIM  = 0.5000    time-step for ionic-motion
   TEIN   =    0.0    initial temperature
   TEBEG  =    0.0;   TEEND  =   0.0 temperature during run
   SMASS  =  -3.00    Nose mass-parameter (am)
   estimated Nose-frequenzy (Omega)   =  0.10E-29 period in steps =****** mass=  -0.115E-26a.u.
   SCALEE = 1.0000    scale energy and forces
   NPACO  =    256;   APACO  = 16.0  distance and # of slots for P.C.
   PSTRESS=    0.0 pullay stress

  Mass of Ions in am
   POMASS =  88.91 79.90
  Ionic Valenz
   ZVAL   =  11.00  7.00
  Atomic Wigner-Seitz radii
   RWIGS  =  -1.00 -1.00
  virtual crystal weights 
   VCA    =   1.00  1.00
   NELECT =     128.0000    total number of electrons
   NUPDOWN=      -1.0000    fix difference up-down

 DOS related values:
   EMIN   =  10.00;   EMAX   =-10.00  energy-range for DOS
   EFERMI =   0.00
   ISMEAR =     0;   SIGMA  =   0.20  broadening in eV -4-tet -1-fermi 0-gaus

 Electronic relaxation 2 (details)
   IALGO  =     38    algorithm
   LDIAG  =      T    sub-space diagonalisation (order eigenvalues)
   LSUBROT=      F    optimize rotation matrix (better conditioning)
   TURBO    =      0    0=normal 1=particle mesh
   IRESTART =      0    0=no restart 2=restart with 2 vectors
   NREBOOT  =      0    no. of reboots
   NMIN     =      0    reboot dimension
   EREF     =   0.00    reference energy to select bands
   IMIX   =      4    mixing-type and parameters
     AMIX     =   0.40;   BMIX     =  1.00
     AMIX_MAG =   1.60;   BMIX_MAG =  1.00
     AMIN     =   0.10
     WC   =   100.;   INIMIX=   1;  MIXPRE=   1;  MAXMIX= -45

 Intra band minimization:
   WEIMIN = 0.0010     energy-eigenvalue tresh-hold
   EBREAK =  0.28E-09  absolut break condition
   DEPER  =   0.30     relativ break condition  

   TIME   =   0.40     timestep for ELM

  volume/ion in A,a.u.               =     135.94       917.36
  Fermi-wavevector in a.u.,A,eV,Ry     =   0.636782  1.203343  5.517038  0.405491
  Thomas-Fermi vector in A             =   1.701567

 Write flags
   LWAVE  =      T    write WAVECAR
   LCHARG =      T    write CHGCAR
   LVTOT  =      F    write LOCPOT, total local potential
   LVHAR  =      T    write LOCPOT, Hartree potential only
   LELF   =      F    write electronic localiz. function (ELF)
   LORBIT =     11    0 simple, 1 ext, 2 COOP (PROOUT)


 Dipole corrections
   LMONO  =      F    monopole corrections only (constant potential shift)
   LDIPOL =      F    correct potential (dipole corrections)
   IDIPOL =      0    1-x, 2-y, 3-z, 4-all directions 
   EPSILON=  1.0000000 bulk dielectric constant

 Exchange correlation treatment:
   GGA     =    BO    GGA type
   LEXCH   =    42    internal setting for exchange type
   VOSKOWN=      0    Vosko Wilk Nusair interpolation
   LHFCALC =     F    Hartree Fock is set to
   LHFONE  =     F    Hartree Fock one center treatment
   AEXX    =    0.0000 exact exchange contribution

 vdW DFT:
   LUSE_VDW   =     T    switch on vdW DFT
   Zab_VDW    =-.8491    correlation parameter
   PARAM1     =0.1833
   PARAM2     =0.2200
   PARAM3     =0.0000

 Linear response parameters
   LEPSILON=     F    determine dielectric tensor
   LRPA    =     F    only Hartree local field effects (RPA)
   LNABLA  =     F    use nabla operator in PAW spheres
   LVEL    =     F    velocity operator in full k-point grid
   LINTERFAST=   F  fast interpolation
   KINTER  =     0    interpolate to denser k-point grid
   CSHIFT  =0.1000    complex shift for real part using Kramers Kronig
   OMEGAMAX=  -1.0    maximum frequency
   DEG_THRESHOLD= 0.2000000E-02 threshold for treating states as degnerate
   RTIME   =    0.100 relaxation time in fs

 Orbital magnetization related:
   ORBITALMAG=     F  switch on orbital magnetization
   LCHIMAG   =     F  perturbation theory with respect to B field
   DQ        =  0.001000  dq finite difference perturbation B field



--------------------------------------------------------------------------------------------------------


 conjugate gradient relaxation of ions
 charge density and potential will be updated during run
 spin polarized calculation
 Variant of blocked Davidson
 Davidson routine will perform the subspace rotation
 perform sub-space diagonalisation
    after iterative eigenvector-optimisation
 modified Broyden-mixing scheme, WC =      100.0
 initial mixing is a Kerker type mixing with AMIX =  0.4000 and BMIX =      1.0000
 Hartree-type preconditioning will be used
 using additional bands           24
 reciprocal scheme for non local part
 use partial core corrections
 calculate Harris-corrections to forces   (improved forces if not selfconsistent)
 use gradient corrections 
 use of overlap-Matrix (Vanderbilt PP)
 Gauss-broadening in eV      SIGMA  =   0.20


--------------------------------------------------------------------------------------------------------


  energy-cutoff  :      700.00
  volume of cell :     2175.02
      direct lattice vectors                 reciprocal lattice vectors
     7.095590880  0.000000000  0.000000000     0.140932590 -0.000000000  0.049991829
     0.000000000 12.261237063  0.000000000     0.000000000  0.081557839 -0.000000000
    -8.868039176  0.000000000 25.000000000     0.000000000  0.000000000  0.040000000

  length of vectors
     7.095590880 12.261237063 26.526253388     0.149536544  0.081557839  0.040000000



 k-points in units of 2pi/SCALE and weight: Automatic kpoint scheme                 
   0.00000000  0.00000000  0.00000000       0.125
   0.03523315  0.00000000  0.01249796       0.250
   0.07046629  0.00000000  0.02499591       0.125
   0.00000000  0.04077892  0.00000000       0.125
   0.03523315  0.04077892  0.01249796       0.250
   0.07046629  0.04077892  0.02499591       0.125

 k-points in reciprocal lattice and weights: Automatic kpoint scheme                 
   0.00000000  0.00000000  0.00000000       0.125
   0.25000000  0.00000000  0.00000000       0.250
   0.50000000  0.00000000  0.00000000       0.125
   0.00000000  0.50000000  0.00000000       0.125
   0.25000000  0.50000000  0.00000000       0.250
   0.50000000  0.50000000  0.00000000       0.125

 position of ions in fractional coordinates (direct lattice) 
   0.03334700  0.62400489  0.18711700
   0.03334700  0.95750111  0.18711700
   0.53334800  0.12400489  0.18711700
   0.53334800  0.45750111  0.18711700
   0.28832287  0.46581566  0.25081620
   0.28832287  0.11569134  0.25081620
   0.26037021  0.79075300  0.25144760
   0.78832287  0.96581466  0.25081620
   0.78832287  0.61569134  0.25081620
   0.76037021  0.29075300  0.25144760
   0.30632479  0.29075300  0.12278740
   0.27837213  0.96581466  0.12341780
   0.27837213  0.61569134  0.12341780
   0.80632579  0.79075300  0.12278740
   0.77837213  0.46581566  0.12341780
   0.77837213  0.11569134  0.12341780

 position of ions in cartesian coordinates  (Angst):
  -1.42274422  7.65107183  4.67792500
  -1.42274422 11.74014815  4.67792500
   2.12505832  1.52045330  4.67792500
   2.12505832  5.60952962  4.67792500
  -0.17842679  5.71147627  6.27040512
  -0.17842679  1.41851891  6.27040512
  -0.38236663  9.69560999  6.28618996
   3.36936865 11.84208254  6.27040512
   3.36936865  7.54913744  6.27040512
   3.16542881  3.56499146  6.28618996
   1.08467186  3.56499146  3.06968504
   0.88074089 11.84208254  3.08544488
   0.88074089  7.54913744  3.08544488
   4.63247440  9.69560999  3.06968504
   4.42853633  5.71147627  3.08544488
   4.42853633  1.41851891  3.08544488



--------------------------------------------------------------------------------------------------------


 k-point  1 :   0.0000 0.0000 0.0000  plane waves:   91495
 k-point  2 :   0.2500 0.0000 0.0000  plane waves:   91452
 k-point  3 :   0.5000 0.0000 0.0000  plane waves:   91518
 k-point  4 :   0.0000 0.5000 0.0000  plane waves:   91460
 k-point  5 :   0.2500 0.5000 0.0000  plane waves:   91454
 k-point  6 :   0.5000 0.5000 0.0000  plane waves:   91456

 maximum and minimum number of plane-waves per node :     45784    45685

 maximum number of plane-waves:     91518
 maximum index in each direction: 
   IXMAX=   15   IYMAX=   26   IZMAX=   57
   IXMIN=  -15   IYMIN=  -26   IZMIN=  -57

 NGX is ok and might be reduce to  62
 NGY is ok and might be reduce to 106
 NGZ is ok and might be reduce to 230

 parallel 3D FFT for wavefunctions:
    minimum data exchange during FFTs selected (reduces bandwidth)
 parallel 3D FFT for charge:
    minimum data exchange during FFTs selected (reduces bandwidth)


 total amount of memory used by VASP on root node   434467. kBytes
========================================================================

   base      :      30000. kBytes
   nonl-proj :     121602. kBytes
   fftplans  :      52369. kBytes
   grid      :     133050. kBytes
   one-center:        480. kBytes
   wavefun   :      96966. kBytes

     INWAV:  cpu time    0.0000: real time    0.0000
 Broyden mixing: mesh for mixing (old mesh)
   NGX = 31   NGY = 53   NGZ =115
  (NGX  =128   NGY  =216   NGZ  =480)
  gives a total of 188945 points

 initial charge density was supplied:
 charge density of overlapping atoms calculated
 number of electron     128.0000000 magnetization      16.0000000
 keeping initial charge density in first step


--------------------------------------------------------------------------------------------------------


 Maximum index for augmentation-charges         3352 (set IRDMAX)


--------------------------------------------------------------------------------------------------------


 First call to EWALD:  gamma=   0.137
 Maximum number of real-space cells 5x 3x 2
 Maximum number of reciprocal cells 2x 3x 5

 FEWALD executed in parallel
    FEWALD:  cpu time    0.0440: real time    0.0471


----------------------------------------- Iteration    1(   1)  ---------------------------------------


vdW kernel read from vdw_kernel.bindat
  0.0000  0.2424  0.5071  0.7962  1.1119  1.4567  1.8333  2.2446  2.6937  3.1842
  3.7199  4.3049  4.9438  5.6415  6.4036  7.2358  8.1446  9.1372 10.2212 11.4050
 12.6979 14.1099 15.6519 17.3360 19.1751 21.1837 23.3773 25.7729 28.3892 31.2465
 34.3669 37.7748 41.4965 45.5611 50.0000

    POTLOK:  cpu time   86.9320: real time   86.9143
    SETDIJ:  cpu time    0.0600: real time    0.0620
     EDDAV:  cpu time  173.0600: real time  173.0147
       DOS:  cpu time    0.0000: real time    0.0030
    --------------------------------------------
      LOOP:  cpu time  260.0560: real time  259.9973

 eigenvalue-minimisations  :  2408
 total energy-change (2. order) : 0.1182526E+04  (-0.4996793E+04)
 number of electron     128.0000000 magnetization      16.0000000
 augmentation part      128.0000000 magnetization      16.0000000

 Free energy of the ion-electron system (eV)
  ---------------------------------------------------
  alpha Z        PSCENC =        94.42171512
  Ewald energy   TEWEN  =     17215.94846186
  -Hartree energ DENC   =    -24432.68988145
  -exchange      EXHF   =         0.00000000
  -V(xc)+E(xc)   XCENC  =       285.08611351
  PAW double counting   =      6987.49335909    -6862.82187284
  entropy T*S    EENTRO =        -0.26097815
  eigenvalues    EBANDS =      -770.58031465
  atomic energy  EATOM  =      8665.92982304
  Solvation  Ediel_sol  =         0.00000000
  ---------------------------------------------------
  free energy    TOTEN  =      1182.52642552 eV

  energy without entropy =     1182.78740368  energy(sigma->0) =     1182.65691460


--------------------------------------------------------------------------------------------------------




----------------------------------------- Iteration    1(   2)  ---------------------------------------


     EDDAV:  cpu time  198.2160: real time  198.1614
       DOS:  cpu time    0.0040: real time    0.0034
    --------------------------------------------
      LOOP:  cpu time  198.2240: real time  198.1676

 eigenvalue-minimisations  :  3072
 total energy-change (2. order) :-0.9813992E+03  (-0.9407595E+03)
 number of electron     128.0000000 magnetization      16.0000000
 augmentation part      128.0000000 magnetization      16.0000000

 Free energy of the ion-electron system (eV)
  ---------------------------------------------------
  alpha Z        PSCENC =        94.42171512
  Ewald energy   TEWEN  =     17215.94846186
  -Hartree energ DENC   =    -24432.68988145
  -exchange      EXHF   =         0.00000000
  -V(xc)+E(xc)   XCENC  =       285.08611351
  PAW double counting   =      6987.49335909    -6862.82187284
  entropy T*S    EENTRO =        -0.00000000
  eigenvalues    EBANDS =     -1752.24048547
  atomic energy  EATOM  =      8665.92982304
  Solvation  Ediel_sol  =         0.00000000
  ---------------------------------------------------
  free energy    TOTEN  =       201.12723285 eV

  energy without entropy =      201.12723285  energy(sigma->0) =      201.12723285


--------------------------------------------------------------------------------------------------------




----------------------------------------- Iteration    1(   3)  ---------------------------------------


     EDDAV:  cpu time  183.3760: real time  183.3238
       DOS:  cpu time    0.0040: real time    0.0037
    --------------------------------------------
      LOOP:  cpu time  183.3840: real time  183.3318

 eigenvalue-minimisations  :  2760
 total energy-change (2. order) :-0.2356487E+03  (-0.2347397E+03)
 number of electron     128.0000000 magnetization      16.0000000
 augmentation part      128.0000000 magnetization      16.0000000

 Free energy of the ion-electron system (eV)
  ---------------------------------------------------
  alpha Z        PSCENC =        94.42171512
  Ewald energy   TEWEN  =     17215.94846186
  -Hartree energ DENC   =    -24432.68988145
  -exchange      EXHF   =         0.00000000
  -V(xc)+E(xc)   XCENC  =       285.08611351
  PAW double counting   =      6987.49335909    -6862.82187284
  entropy T*S    EENTRO =        -0.00000000
  eigenvalues    EBANDS =     -1987.88920629
  atomic energy  EATOM  =      8665.92982304
  Solvation  Ediel_sol  =         0.00000000
  ---------------------------------------------------
  free energy    TOTEN  =       -34.52148797 eV

  energy without entropy =      -34.52148797  energy(sigma->0) =      -34.52148797


--------------------------------------------------------------------------------------------------------




----------------------------------------- Iteration    1(   4)  ---------------------------------------


     EDDAV:  cpu time  188.5440: real time  188.4887
       DOS:  cpu time    0.0080: real time    0.0078
    --------------------------------------------
      LOOP:  cpu time  188.6280: real time  188.5732

 eigenvalue-minimisations  :  3056
 total energy-change (2. order) :-0.1302334E+02  (-0.1296681E+02)
 number of electron     128.0000000 magnetization      16.0000000
 augmentation part      128.0000000 magnetization      16.0000000

 Free energy of the ion-electron system (eV)
  ---------------------------------------------------
  alpha Z        PSCENC =        94.42171512
  Ewald energy   TEWEN  =     17215.94846186
  -Hartree energ DENC   =    -24432.68988145
  -exchange      EXHF   =         0.00000000
  -V(xc)+E(xc)   XCENC  =       285.08611351
  PAW double counting   =      6987.49335909    -6862.82187284
  entropy T*S    EENTRO =        -0.00000000
  eigenvalues    EBANDS =     -2000.91254203
  atomic energy  EATOM  =      8665.92982304
  Solvation  Ediel_sol  =         0.00000000
  ---------------------------------------------------
  free energy    TOTEN  =       -47.54482370 eV

  energy without entropy =      -47.54482370  energy(sigma->0) =      -47.54482370


--------------------------------------------------------------------------------------------------------




----------------------------------------- Iteration    1(   5)  ---------------------------------------


     EDDAV:  cpu time  241.9120: real time  241.8429
       DOS:  cpu time    0.0040: real time    0.0036
    CHARGE:  cpu time    8.7960: real time    8.7918
    MIXING:  cpu time    0.0640: real time    0.0659
    --------------------------------------------
      LOOP:  cpu time  250.7840: real time  250.7142

 eigenvalue-minimisations  :  3696
 total energy-change (2. order) :-0.7093757E+00  (-0.7088196E+00)
 number of electron     127.9999999 magnetization      14.4790364
 augmentation part       -8.2935024 magnetization      14.4256102

 Broyden mixing:
  rms(total) = 0.52501E+01    rms(broyden)= 0.52501E+01
  rms(prec ) = 0.52696E+01
  weight for this iteration     100.00

 Free energy of the ion-electron system (eV)
  ---------------------------------------------------
  alpha Z        PSCENC =        94.42171512
  Ewald energy   TEWEN  =     17215.94846186
  -Hartree energ DENC   =    -24432.68988145
  -exchange      EXHF   =         0.00000000
  -V(xc)+E(xc)   XCENC  =       285.08611351
  PAW double counting   =      6987.49335909    -6862.82187284
  entropy T*S    EENTRO =        -0.00000000
  eigenvalues    EBANDS =     -2001.62191776
  atomic energy  EATOM  =      8665.92982304
  Solvation  Ediel_sol  =         0.00000000
  ---------------------------------------------------
  free energy    TOTEN  =       -48.25419943 eV

  energy without entropy =      -48.25419943  energy(sigma->0) =      -48.25419943


--------------------------------------------------------------------------------------------------------




----------------------------------------- Iteration    1(   6)  ---------------------------------------


    POTLOK:  cpu time   96.2560: real time   96.2270
    SETDIJ:  cpu time    0.0960: real time    0.0962
     EDDAV:  cpu time  195.3360: real time  195.2893
       DOS:  cpu time    0.0040: real time    0.0034
    CHARGE:  cpu time    8.6280: real time    8.6256
    MIXING:  cpu time    0.0600: real time    0.0588
    --------------------------------------------
      LOOP:  cpu time  300.3840: real time  300.3077

 eigenvalue-minimisations  :  2960
 total energy-change (2. order) :-0.2478492E+02  (-0.3230373E+02)
 number of electron     127.9999999 magnetization      12.8701353
 augmentation part       -7.5422250 magnetization      12.8562507

 Broyden mixing:
  rms(total) = 0.43012E+01    rms(broyden)= 0.42979E+01
  rms(prec ) = 0.43054E+01
  weight for this iteration     100.00

 eigenvalues of (default mixing * dielectric matrix)
  average eigenvalue GAMMA=   0.7151
  0.7151

 Free energy of the ion-electron system (eV)
  ---------------------------------------------------
  alpha Z        PSCENC =        94.42171512
  Ewald energy   TEWEN  =     17215.94846186
  -Hartree energ DENC   =    -24412.50340548
  -exchange      EXHF   =         0.00000000
  -V(xc)+E(xc)   XCENC  =       288.76267751
  PAW double counting   =      8204.76255773    -8090.57720018
  entropy T*S    EENTRO =        -0.10067166
  eigenvalues    EBANDS =     -2039.68307626
  atomic energy  EATOM  =      8665.92982304
  Solvation  Ediel_sol  =         0.00000000
  ---------------------------------------------------
  free energy    TOTEN  =       -73.03911831 eV

  energy without entropy =      -72.93844666  energy(sigma->0) =      -72.98878249


--------------------------------------------------------------------------------------------------------




----------------------------------------- Iteration    1(   7)  ---------------------------------------


    POTLOK:  cpu time  114.6000: real time  114.5591
    SETDIJ:  cpu time    0.1280: real time    0.1300
     EDDAV:  cpu time  184.1360: real time  184.0810
       DOS:  cpu time    0.0040: real time    0.0038
    CHARGE:  cpu time   10.1240: real time   10.1198
    MIXING:  cpu time    0.0840: real time    0.0842
    --------------------------------------------
      LOOP:  cpu time  309.0760: real time  308.9811

 eigenvalue-minimisations  :  2608
 total energy-change (2. order) : 0.3598730E+02  (-0.1017826E+03)
 number of electron     127.9999999 magnetization      10.3133368
 augmentation part       -7.7974640 magnetization      10.3442321

 Broyden mixing:
  rms(total) = 0.35479E+01    rms(broyden)= 0.35453E+01
  rms(prec ) = 0.35474E+01
  weight for this iteration     100.00

 eigenvalues of (default mixing * dielectric matrix)
  average eigenvalue GAMMA=   1.2072
  2.0067  0.4077

 Free energy of the ion-electron system (eV)
  ---------------------------------------------------
  alpha Z        PSCENC =        94.42171512
  Ewald energy   TEWEN  =     17215.94846186
  -Hartree energ DENC   =    -24379.50980507
  -exchange      EXHF   =         0.00000000
  -V(xc)+E(xc)   XCENC  =       292.71171023
  PAW double counting   =      9484.80384654    -9375.97305996
  entropy T*S    EENTRO =        -0.00000000
  eigenvalues    EBANDS =     -2035.38451322
  atomic energy  EATOM  =      8665.92982304
  Solvation  Ediel_sol  =         0.00000000
  ---------------------------------------------------
  free energy    TOTEN  =       -37.05182147 eV

  energy without entropy =      -37.05182147  energy(sigma->0) =      -37.05182147


--------------------------------------------------------------------------------------------------------




----------------------------------------- Iteration    1(   8)  ---------------------------------------


    POTLOK:  cpu time   84.6760: real time   84.6437
    SETDIJ:  cpu time    0.0960: real time    0.0972
     EDDAV:  cpu time  191.5800: real time  191.5269
       DOS:  cpu time    0.0040: real time    0.0021
    CHARGE:  cpu time    6.6120: real time    6.6116
    MIXING:  cpu time    0.0800: real time    0.0807
    --------------------------------------------
      LOOP:  cpu time  283.0480: real time  282.9672

 eigenvalue-minimisations  :  2848
 total energy-change (2. order) :-0.1970355E+03  (-0.1466118E+03)
 number of electron     127.9999999 magnetization       9.2763408
 augmentation part       -7.6585748 magnetization       9.1439137

 Broyden mixing:
  rms(total) = 0.20481E+01    rms(broyden)= 0.20358E+01
  rms(prec ) = 0.20499E+01
  weight for this iteration     100.00

 eigenvalues of (default mixing * dielectric matrix)
  average eigenvalue GAMMA=   1.1797
  2.5355  0.5019  0.5019

 Free energy of the ion-electron system (eV)
  ---------------------------------------------------
  alpha Z        PSCENC =        94.42171512
  Ewald energy   TEWEN  =     17215.94846186
  -Hartree energ DENC   =    -24363.43348673
  -exchange      EXHF   =         0.00000000
  -V(xc)+E(xc)   XCENC  =       289.67788172
  PAW double counting   =     11197.41926090   -11093.63815081
  entropy T*S    EENTRO =        -0.00046355
  eigenvalues    EBANDS =     -2240.41233498
  atomic energy  EATOM  =      8665.92982304
  Solvation  Ediel_sol  =         0.00000000
  ---------------------------------------------------
  free energy    TOTEN  =      -234.08729343 eV

  energy without entropy =     -234.08682988  energy(sigma->0) =     -234.08706166


--------------------------------------------------------------------------------------------------------




----------------------------------------- Iteration    1(   9)  ---------------------------------------


    POTLOK:  cpu time  109.3400: real time  109.3051
    SETDIJ:  cpu time    0.0880: real time    0.0869
     EDDAV:  cpu time  164.3600: real time  164.3115
       DOS:  cpu time    0.0000: real time    0.0031
    CHARGE:  cpu time    7.9000: real time    7.8978
    MIXING:  cpu time    0.0720: real time    0.0684
    --------------------------------------------
      LOOP:  cpu time  281.7640: real time  281.6762

 eigenvalue-minimisations  :  2408
 total energy-change (2. order) : 0.1961251E+03  (-0.1424988E+03)
 number of electron     127.9999999 magnetization       8.5637616
 augmentation part       -7.8428986 magnetization       8.2469048

 Broyden mixing:
  rms(total) = 0.15194E+01    rms(broyden)= 0.15089E+01
  rms(prec ) = 0.15159E+01
  weight for this iteration     100.00

 eigenvalues of (default mixing * dielectric matrix)
  average eigenvalue GAMMA=   1.2153
  3.1707  0.8209  0.5364  0.3331

 Free energy of the ion-electron system (eV)
  ---------------------------------------------------
  alpha Z        PSCENC =        94.42171512
  Ewald energy   TEWEN  =     17215.94846186
  -Hartree energ DENC   =    -24360.15755082
  -exchange      EXHF   =         0.00000000
  -V(xc)+E(xc)   XCENC  =       291.59517844
  PAW double counting   =     11503.24277076   -11398.08970138
  entropy T*S    EENTRO =        -0.03395602
  eigenvalues    EBANDS =     -2050.81896700
  atomic energy  EATOM  =      8665.92982304
  Solvation  Ediel_sol  =         0.00000000
  ---------------------------------------------------
  free energy    TOTEN  =       -37.96222600 eV

  energy without entropy =      -37.92826997  energy(sigma->0) =      -37.94524799


--------------------------------------------------------------------------------------------------------




----------------------------------------- Iteration    1(  10)  ---------------------------------------


    POTLOK:  cpu time   84.0080: real time   83.9790
    SETDIJ:  cpu time    0.1040: real time    0.1028
     EDDAV:  cpu time  172.5560: real time  172.5135
       DOS:  cpu time    0.0040: real time    0.0035
    CHARGE:  cpu time    8.1000: real time    8.0964
    MIXING:  cpu time    0.0920: real time    0.0925
    --------------------------------------------
      LOOP:  cpu time  264.8640: real time  264.7924

 eigenvalue-minimisations  :  2568
 total energy-change (2. order) :-0.4152053E+01  (-0.8842550E+00)
 number of electron     127.9999999 magnetization       8.1993298
 augmentation part       -8.0121269 magnetization       8.2315015

 Broyden mixing:
  rms(total) = 0.11183E+01    rms(broyden)= 0.11177E+01
  rms(prec ) = 0.11225E+01
  weight for this iteration     100.00

 eigenvalues of (default mixing * dielectric matrix)
  average eigenvalue GAMMA=   1.0773
  2.9375  0.7900  0.7900  0.4345  0.4345

 Free energy of the ion-electron system (eV)
  ---------------------------------------------------
  alpha Z        PSCENC =        94.42171512
  Ewald energy   TEWEN  =     17215.94846186
  -Hartree energ DENC   =    -24372.36855991
  -exchange      EXHF   =         0.00000000
  -V(xc)+E(xc)   XCENC  =       289.32470372
  PAW double counting   =     11398.87549166   -11291.68277328
  entropy T*S    EENTRO =        -0.00000000
  eigenvalues    EBANDS =     -2042.56314139
  atomic energy  EATOM  =      8665.92982304
  Solvation  Ediel_sol  =         0.00000000
  ---------------------------------------------------
  free energy    TOTEN  =       -42.11427919 eV

  energy without entropy =      -42.11427919  energy(sigma->0) =      -42.11427919


--------------------------------------------------------------------------------------------------------




----------------------------------------- Iteration    1(  11)  ---------------------------------------


    POTLOK:  cpu time  118.2120: real time  118.1756
    SETDIJ:  cpu time    0.0680: real time    0.0670
     EDDAV:  cpu time  208.7600: real time  208.7189
       DOS:  cpu time    0.0000: real time    0.0025
    CHARGE:  cpu time    9.2240: real time    9.2205
    MIXING:  cpu time    0.0800: real time    0.0808
    --------------------------------------------
      LOOP:  cpu time  336.3440: real time  336.2705

 eigenvalue-minimisations  :  3296
 total energy-change (2. order) :-0.8186561E+03  (-0.7403688E+03)
 number of electron     127.9999999 magnetization       8.0729737
 augmentation part       -7.8037661 magnetization       7.9300313

 Broyden mixing:
  rms(total) = 0.15084E+01    rms(broyden)= 0.14991E+01
  rms(prec ) = 0.15117E+01
  weight for this iteration     100.00

 eigenvalues of (default mixing * dielectric matrix)
  average eigenvalue GAMMA=   0.9234
  2.8982  0.8370  0.8370  0.4382  0.4382  0.0916

 Free energy of the ion-electron system (eV)
  ---------------------------------------------------
  alpha Z        PSCENC =        94.42171512
  Ewald energy   TEWEN  =     17215.94846186
  -Hartree energ DENC   =    -24381.25173177
  -exchange      EXHF   =         0.00000000
  -V(xc)+E(xc)   XCENC  =       289.40106738
  PAW double counting   =     11113.98753577   -11005.49959285
  entropy T*S    EENTRO =        -0.01963436
  eigenvalues    EBANDS =     -2853.68799506
  atomic energy  EATOM  =      8665.92982304
  Solvation  Ediel_sol  =         0.00000000
  ---------------------------------------------------
  free energy    TOTEN  =      -860.77035086 eV

  energy without entropy =     -860.75071651  energy(sigma->0) =     -860.76053368


--------------------------------------------------------------------------------------------------------




----------------------------------------- Iteration    1(  12)  ---------------------------------------


    POTLOK:  cpu time  115.1960: real time  115.4741
    SETDIJ:  cpu time    0.1080: real time    0.1083
     EDDAV:  cpu time  165.4640: real time  165.4412
       DOS:  cpu time    0.0040: real time    0.0032
    CHARGE:  cpu time    8.1920: real time    8.1898
    MIXING:  cpu time    0.0560: real time    0.0559
    --------------------------------------------
      LOOP:  cpu time  289.0240: real time  289.2768

 eigenvalue-minimisations  :  2448
 total energy-change (2. order) : 0.8201390E+03  (-0.1305089E+03)
 number of electron     127.9999999 magnetization       7.5916270
 augmentation part       -7.9088422 magnetization       7.5455329

 Broyden mixing:
  rms(total) = 0.63110E+00    rms(broyden)= 0.61690E+00
  rms(prec ) = 0.62139E+00
  weight for this iteration     100.00

 eigenvalues of (default mixing * dielectric matrix)
  average eigenvalue GAMMA=   0.8778
  2.7685  0.9919  0.9919  0.4681  0.4681  0.3565  0.0996

 Free energy of the ion-electron system (eV)
  ---------------------------------------------------
  alpha Z        PSCENC =        94.42171512
  Ewald energy   TEWEN  =     17215.94846186
  -Hartree energ DENC   =    -24380.81605289
  -exchange      EXHF   =         0.00000000
  -V(xc)+E(xc)   XCENC  =       289.53235781
  PAW double counting   =     11099.39223022   -10990.57995194
  entropy T*S    EENTRO =        -0.00000000
  eigenvalues    EBANDS =     -2034.45996916
  atomic energy  EATOM  =      8665.92982304
  Solvation  Ediel_sol  =         0.00000000
  ---------------------------------------------------
  free energy    TOTEN  =       -40.63138594 eV

  energy without entropy =      -40.63138594  energy(sigma->0) =      -40.63138594


--------------------------------------------------------------------------------------------------------




----------------------------------------- Iteration    1(  13)  ---------------------------------------


    POTLOK:  cpu time   83.1320: real time   83.1178
    SETDIJ:  cpu time    0.0880: real time    0.0887
     EDDAV:  cpu time  157.2320: real time  157.2090
       DOS:  cpu time    0.0080: real time    0.0062
    CHARGE:  cpu time    7.6800: real time    7.6819
    MIXING:  cpu time    0.0920: real time    0.0907
    --------------------------------------------
      LOOP:  cpu time  248.2320: real time  248.1976

 eigenvalue-minimisations  :  2528
 total energy-change (2. order) :-0.2058728E+01  (-0.1099497E+01)
 number of electron     127.9999999 magnetization       6.4968571
 augmentation part       -7.9803000 magnetization       6.5237347

 Broyden mixing:
  rms(total) = 0.69721E+00    rms(broyden)= 0.69670E+00
  rms(prec ) = 0.69951E+00
  weight for this iteration     100.00

 eigenvalues of (default mixing * dielectric matrix)
  average eigenvalue GAMMA=   0.9001
  2.6415  1.2687  1.2687  0.6116  0.6116  0.3491  0.3491  0.1008

 Free energy of the ion-electron system (eV)
  ---------------------------------------------------
  alpha Z        PSCENC =        94.42171512
  Ewald energy   TEWEN  =     17215.94846186
  -Hartree energ DENC   =    -24386.08406368
  -exchange      EXHF   =         0.00000000
  -V(xc)+E(xc)   XCENC  =       289.05395157
  PAW double counting   =     11045.61276899   -10936.26275942
  entropy T*S    EENTRO =        -0.00000000
  eigenvalues    EBANDS =     -2031.31001153
  atomic energy  EATOM  =      8665.92982304
  Solvation  Ediel_sol  =         0.00000000
  ---------------------------------------------------
  free energy    TOTEN  =       -42.69011405 eV

  energy without entropy =      -42.69011405  energy(sigma->0) =      -42.69011405


--------------------------------------------------------------------------------------------------------




----------------------------------------- Iteration    1(  14)  ---------------------------------------


    POTLOK:  cpu time   84.8520: real time   84.8300
    SETDIJ:  cpu time    0.1000: real time    0.1012
     EDDAV:  cpu time  188.4040: real time  188.3799
       DOS:  cpu time    0.0040: real time    0.0051
    CHARGE:  cpu time    6.7880: real time    6.7878
    MIXING:  cpu time    0.0920: real time    0.0899
    --------------------------------------------
      LOOP:  cpu time  280.2400: real time  280.1976

 eigenvalue-minimisations  :  2768
 total energy-change (2. order) :-0.6133788E+00  (-0.1536226E+00)
 number of electron     127.9999999 magnetization       4.6523696
 augmentation part       -7.9816231 magnetization       4.6980907

 Broyden mixing:
  rms(total) = 0.44413E+00    rms(broyden)= 0.44410E+00
  rms(prec ) = 0.44584E+00
  weight for this iteration     100.00

 eigenvalues of (default mixing * dielectric matrix)
  average eigenvalue GAMMA=   1.0892
  2.8258  2.8258  1.4315  0.7921  0.6033  0.4763  0.3735  0.3735  0.1006

 Free energy of the ion-electron system (eV)
  ---------------------------------------------------
  alpha Z        PSCENC =        94.42171512
  Ewald energy   TEWEN  =     17215.94846186
  -Hartree energ DENC   =    -24395.33122632
  -exchange      EXHF   =         0.00000000
  -V(xc)+E(xc)   XCENC  =       288.90963220
  PAW double counting   =     10899.32238471   -10788.97084755
  entropy T*S    EENTRO =        -0.00000000
  eigenvalues    EBANDS =     -2023.53343592
  atomic energy  EATOM  =      8665.92982304
  Solvation  Ediel_sol  =         0.00000000
  ---------------------------------------------------
  free energy    TOTEN  =       -43.30349286 eV

  energy without entropy =      -43.30349286  energy(sigma->0) =      -43.30349286


--------------------------------------------------------------------------------------------------------




----------------------------------------- Iteration    1(  15)  ---------------------------------------


    POTLOK:  cpu time  116.6200: real time  116.5871
    SETDIJ:  cpu time    0.1120: real time    0.1120
     EDDAV:  cpu time  209.0280: real time  209.0053
       DOS:  cpu time    0.0080: real time    0.0057
    CHARGE:  cpu time    8.8920: real time    8.8921
    MIXING:  cpu time    0.1000: real time    0.0987
    --------------------------------------------
      LOOP:  cpu time  334.7600: real time  334.7041

 eigenvalue-minimisations  :  3144
 total energy-change (2. order) :-0.4109293E+02  (-0.3965717E+02)
 number of electron     127.9999999 magnetization       4.6512875
 augmentation part       -7.7414205 magnetization       4.4843956

 Broyden mixing:
  rms(total) = 0.19244E+01    rms(broyden)= 0.19109E+01
  rms(prec ) = 0.19343E+01
  weight for this iteration     100.00

 eigenvalues of (default mixing * dielectric matrix)
  average eigenvalue GAMMA=   0.9805
  2.8263  2.8263  1.4299  0.7926  0.6035  0.4769  0.3734  0.3734  0.1006  0.0018

 Free energy of the ion-electron system (eV)
  ---------------------------------------------------
  alpha Z        PSCENC =        94.42171512
  Ewald energy   TEWEN  =     17215.94846186
  -Hartree energ DENC   =    -24408.72131816
  -exchange      EXHF   =         0.00000000
  -V(xc)+E(xc)   XCENC  =       289.05298883
  PAW double counting   =     10761.97366312   -10650.19160946
  entropy T*S    EENTRO =        -0.01914947
  eigenvalues    EBANDS =     -2052.79099414
  atomic energy  EATOM  =      8665.92982304
  Solvation  Ediel_sol  =         0.00000000
  ---------------------------------------------------
  free energy    TOTEN  =       -84.39641927 eV

  energy without entropy =      -84.37726980  energy(sigma->0) =      -84.38684453


--------------------------------------------------------------------------------------------------------




----------------------------------------- Iteration    1(  16)  ---------------------------------------


    POTLOK:  cpu time  119.9320: real time  119.8972
    SETDIJ:  cpu time    0.0680: real time    0.0678
     EDDAV:  cpu time  156.9400: real time  157.0386
       DOS:  cpu time    0.0040: real time    0.0036
    CHARGE:  cpu time    9.5360: real time    9.5369
    MIXING:  cpu time    0.0760: real time    0.0758
    --------------------------------------------
      LOOP:  cpu time  286.5560: real time  286.6232

 eigenvalue-minimisations  :  2376
 total energy-change (2. order) : 0.4239597E+02  (-0.2028852E+03)
 number of electron     127.9999999 magnetization       4.2789367
 augmentation part       -7.8620976 magnetization       4.2212927

 Broyden mixing:
  rms(total) = 0.33387E+00    rms(broyden)= 0.28007E+00
  rms(prec ) = 0.28103E+00
  weight for this iteration     100.00
  WARNING: grid for Broyden might be to small

 eigenvalues of (default mixing * dielectric matrix)
  average eigenvalue GAMMA=   0.9328
  2.8918  2.8918  1.4025  0.8290  0.6216  0.4970  0.3690  0.3271  0.3271  0.1006
  0.0034

 Free energy of the ion-electron system (eV)
  ---------------------------------------------------
  alpha Z        PSCENC =        94.42171512
  Ewald energy   TEWEN  =     17215.94846186
  -Hartree energ DENC   =    -24408.61827841
  -exchange      EXHF   =         0.00000000
  -V(xc)+E(xc)   XCENC  =       289.46492765
  PAW double counting   =     10761.21696658   -10649.43120134
  entropy T*S    EENTRO =        -0.00000000
  eigenvalues    EBANDS =     -2010.93286499
  atomic energy  EATOM  =      8665.92982304
  Solvation  Ediel_sol  =         0.00000000
  ---------------------------------------------------
  free energy    TOTEN  =       -42.00045049 eV

  energy without entropy =      -42.00045049  energy(sigma->0) =      -42.00045049


--------------------------------------------------------------------------------------------------------




----------------------------------------- Iteration    1(  17)  ---------------------------------------


    POTLOK:  cpu time   84.6520: real time   84.6248
    SETDIJ:  cpu time    0.0760: real time    0.0751
     EDDAV:  cpu time  176.3320: real time  176.2823
       DOS:  cpu time    0.0040: real time    0.0042
    CHARGE:  cpu time    9.4560: real time    9.4545
    MIXING:  cpu time    0.0840: real time    0.0829
    --------------------------------------------
      LOOP:  cpu time  270.6080: real time  270.5297

 eigenvalue-minimisations  :  2528
 total energy-change (2. order) :-0.1761366E+01  (-0.1158212E+01)
 number of electron     127.9999999 magnetization       2.9944867
 augmentation part       -7.9430779 magnetization       3.0058983

 Broyden mixing:
  rms(total) = 0.21345E+00    rms(broyden)= 0.21032E+00
  rms(prec ) = 0.21110E+00
  weight for this iteration     100.00

 eigenvalues of (default mixing * dielectric matrix)
  average eigenvalue GAMMA=   0.9755
  3.2885  2.9488  1.2271  1.2271  0.7014  0.7014  0.4977  0.3506  0.3506  0.3086
  0.1006  0.0034

 Free energy of the ion-electron system (eV)
  ---------------------------------------------------
  alpha Z        PSCENC =        94.42171512
  Ewald energy   TEWEN  =     17215.94846186
  -Hartree energ DENC   =    -24409.64774658
  -exchange      EXHF   =         0.00000000
  -V(xc)+E(xc)   XCENC  =       289.05245792
  PAW double counting   =     10792.47675340   -10680.69010262
  entropy T*S    EENTRO =        -0.00000000
  eigenvalues    EBANDS =     -2011.25317838
  atomic energy  EATOM  =      8665.92982304
  Solvation  Ediel_sol  =         0.00000000
  ---------------------------------------------------
  free energy    TOTEN  =       -43.76181624 eV

  energy without entropy =      -43.76181624  energy(sigma->0) =      -43.76181624


--------------------------------------------------------------------------------------------------------




----------------------------------------- Iteration    1(  18)  ---------------------------------------


    POTLOK:  cpu time   93.7760: real time   93.7431
    SETDIJ:  cpu time    0.0720: real time    0.0706
     EDDAV:  cpu time  173.0120: real time  172.9618
       DOS:  cpu time    0.0040: real time    0.0035
    CHARGE:  cpu time    7.0240: real time    7.0234
    MIXING:  cpu time    0.0640: real time    0.0616
    --------------------------------------------
      LOOP:  cpu time  273.9520: real time  273.8673

 eigenvalue-minimisations  :  2520
 total energy-change (2. order) :-0.1826465E+00  (-0.1928508E+00)
 number of electron     127.9999999 magnetization       2.2165159
 augmentation part       -7.9615513 magnetization       2.2282370

 Broyden mixing:
  rms(total) = 0.18277E+00    rms(broyden)= 0.18262E+00
  rms(prec ) = 0.18373E+00
  weight for this iteration     100.00

 eigenvalues of (default mixing * dielectric matrix)
  average eigenvalue GAMMA=   1.0296
  3.8888  2.6588  1.5972  1.5972  0.8126  0.5694  0.5694  0.5622  0.3676  0.3288
  0.3288  0.1006  0.0034

 Free energy of the ion-electron system (eV)
  ---------------------------------------------------
  alpha Z        PSCENC =        94.42171512
  Ewald energy   TEWEN  =     17215.94846186
  -Hartree energ DENC   =    -24413.58617917
  -exchange      EXHF   =         0.00000000
  -V(xc)+E(xc)   XCENC  =       288.98588496
  PAW double counting   =     10799.42434114   -10687.66058301
  entropy T*S    EENTRO =        -0.00000000
  eigenvalues    EBANDS =     -2007.40792671
  atomic energy  EATOM  =      8665.92982304
  Solvation  Ediel_sol  =         0.00000000
  ---------------------------------------------------
  free energy    TOTEN  =       -43.94446278 eV

  energy without entropy =      -43.94446278  energy(sigma->0) =      -43.94446278


--------------------------------------------------------------------------------------------------------




----------------------------------------- Iteration    1(  19)  ---------------------------------------


    POTLOK:  cpu time  106.7080: real time  106.8124
    SETDIJ:  cpu time    0.0640: real time    0.0669
     EDDAV:  cpu time  157.1360: real time  157.2726
       DOS:  cpu time    0.0040: real time    0.0034
    CHARGE:  cpu time    6.4600: real time    6.4571
    MIXING:  cpu time    0.0680: real time    0.0670
    --------------------------------------------
      LOOP:  cpu time  270.4400: real time  270.6827

 eigenvalue-minimisations  :  2432
 total energy-change (2. order) :-0.1049428E+00  (-0.1961933E-01)
 number of electron     127.9999999 magnetization       1.1762308
 augmentation part       -7.9647582 magnetization       1.1870534

 Broyden mixing:
  rms(total) = 0.15334E+00    rms(broyden)= 0.15334E+00
  rms(prec ) = 0.15443E+00
  weight for this iteration     100.00

 eigenvalues of (default mixing * dielectric matrix)
  average eigenvalue GAMMA=   1.1465
  4.5290  3.1621  2.2424  1.5737  0.8738  0.7370  0.7370  0.5355  0.5355  0.3650
  0.3282  0.3282  0.1006  0.0034

 Free energy of the ion-electron system (eV)
  ---------------------------------------------------
  alpha Z        PSCENC =        94.42171512
  Ewald energy   TEWEN  =     17215.94846186
  -Hartree energ DENC   =    -24414.64040406
  -exchange      EXHF   =         0.00000000
  -V(xc)+E(xc)   XCENC  =       288.87931056
  PAW double counting   =     10802.82792104   -10691.27255891
  entropy T*S    EENTRO =        -0.00000000
  eigenvalues    EBANDS =     -2006.14367427
  atomic energy  EATOM  =      8665.92982304
  Solvation  Ediel_sol  =         0.00000000
  ---------------------------------------------------
  free energy    TOTEN  =       -44.04940562 eV

  energy without entropy =      -44.04940562  energy(sigma->0) =      -44.04940562


--------------------------------------------------------------------------------------------------------




----------------------------------------- Iteration    1(  20)  ---------------------------------------


    POTLOK:  cpu time  121.0960: real time  121.1307
    SETDIJ:  cpu time    0.0840: real time    0.0820
     EDDAV:  cpu time  164.0280: real time  164.0069
       DOS:  cpu time    0.0040: real time    0.0034
    CHARGE:  cpu time    7.8680: real time    7.8663
    MIXING:  cpu time    0.1160: real time    0.1159
    --------------------------------------------
      LOOP:  cpu time  293.1960: real time  293.2081

 eigenvalue-minimisations  :  2504
 total energy-change (2. order) :-0.1309243E+00  (-0.4380960E-02)
 number of electron     127.9999999 magnetization       0.2433873
 augmentation part       -7.9594967 magnetization       0.2495491

 Broyden mixing:
  rms(total) = 0.12311E+00    rms(broyden)= 0.12311E+00
  rms(prec ) = 0.12391E+00
  weight for this iteration     100.00

 eigenvalues of (default mixing * dielectric matrix)
  average eigenvalue GAMMA=   1.4136
  8.3046  2.6798  2.6798  1.8486  1.0632  1.0632  0.6851  0.6851  0.5344  0.5344
  0.3648  0.3283  0.3283  0.1006  0.0034

 Free energy of the ion-electron system (eV)
  ---------------------------------------------------
  alpha Z        PSCENC =        94.42171512
  Ewald energy   TEWEN  =     17215.94846186
  -Hartree energ DENC   =    -24416.01017829
  -exchange      EXHF   =         0.00000000
  -V(xc)+E(xc)   XCENC  =       288.76737585
  PAW double counting   =     10791.79025982   -10680.49660300
  entropy T*S    EENTRO =        -0.00000000
  eigenvalues    EBANDS =     -2004.53118428
  atomic energy  EATOM  =      8665.92982304
  Solvation  Ediel_sol  =         0.00000000
  ---------------------------------------------------
  free energy    TOTEN  =       -44.18032988 eV

  energy without entropy =      -44.18032988  energy(sigma->0) =      -44.18032988


--------------------------------------------------------------------------------------------------------




----------------------------------------- Iteration    1(  21)  ---------------------------------------


    POTLOK:  cpu time   88.8640: real time   88.8406
    SETDIJ:  cpu time    0.0960: real time    0.0953
     EDDAV:  cpu time  149.2400: real time  149.2401
       DOS:  cpu time    0.0080: real time    0.0061
    CHARGE:  cpu time    8.2600: real time    8.2584
    MIXING:  cpu time    0.1000: real time    0.1002
    --------------------------------------------
      LOOP:  cpu time  246.5680: real time  246.5444

 eigenvalue-minimisations  :  2432
 total energy-change (2. order) :-0.2617803E-01  (-0.2766885E-02)
 number of electron     127.9999999 magnetization       0.1352939
 augmentation part       -7.9529735 magnetization       0.1334007

 Broyden mixing:
  rms(total) = 0.93082E-01    rms(broyden)= 0.93081E-01
  rms(prec ) = 0.93809E-01
  weight for this iteration     100.00

 eigenvalues of (default mixing * dielectric matrix)
  average eigenvalue GAMMA=   1.4936
  9.7146  2.8069  2.8069  1.9065  1.1685  1.1685  0.7571  0.7571  0.5875  0.5875
  0.5103  0.3644  0.3285  0.3285  0.1006  0.0034

 Free energy of the ion-electron system (eV)
  ---------------------------------------------------
  alpha Z        PSCENC =        94.42171512
  Ewald energy   TEWEN  =     17215.94846186
  -Hartree energ DENC   =    -24418.52568236
  -exchange      EXHF   =         0.00000000
  -V(xc)+E(xc)   XCENC  =       288.80512928
  PAW double counting   =     10778.27048644   -10666.89449656
  entropy T*S    EENTRO =        -0.00000000
  eigenvalues    EBANDS =     -2002.16194472
  atomic energy  EATOM  =      8665.92982304
  Solvation  Ediel_sol  =         0.00000000
  ---------------------------------------------------
  free energy    TOTEN  =       -44.20650791 eV

  energy without entropy =      -44.20650791  energy(sigma->0) =      -44.20650791


--------------------------------------------------------------------------------------------------------




----------------------------------------- Iteration    1(  22)  ---------------------------------------


    POTLOK:  cpu time  107.3160: real time  107.2794
    SETDIJ:  cpu time    0.0680: real time    0.0666
     EDDAV:  cpu time  148.5080: real time  148.4880
       DOS:  cpu time    0.0040: real time    0.0065
    CHARGE:  cpu time    8.4280: real time    8.4247
    MIXING:  cpu time    0.0840: real time    0.0835
    --------------------------------------------
      LOOP:  cpu time  264.4120: real time  264.3554

 eigenvalue-minimisations  :  2296
 total energy-change (2. order) :-0.2040553E-01  (-0.5949359E-03)
 number of electron     127.9999999 magnetization       0.0998510
 augmentation part       -7.9524636 magnetization       0.0976020

 Broyden mixing:
  rms(total) = 0.84253E-01    rms(broyden)= 0.84253E-01
  rms(prec ) = 0.84899E-01
  weight for this iteration     100.00

 eigenvalues of (default mixing * dielectric matrix)
  average eigenvalue GAMMA=   1.5077
  9.9046  2.9488  2.9488  2.0618  1.3935  0.9729  0.9347  0.9347  0.6576  0.6576
  0.5703  0.5208  0.3646  0.3284  0.3284  0.1006  0.0034

 Free energy of the ion-electron system (eV)
  ---------------------------------------------------
  alpha Z        PSCENC =        94.42171512
  Ewald energy   TEWEN  =     17215.94846186
  -Hartree energ DENC   =    -24418.64656870
  -exchange      EXHF   =         0.00000000
  -V(xc)+E(xc)   XCENC  =       288.79999250
  PAW double counting   =     10775.78412392   -10664.39588339
  entropy T*S    EENTRO =        -0.00000000
  eigenvalues    EBANDS =     -2002.06857778
  atomic energy  EATOM  =      8665.92982304
  Solvation  Ediel_sol  =         0.00000000
  ---------------------------------------------------
  free energy    TOTEN  =       -44.22691344 eV

  energy without entropy =      -44.22691344  energy(sigma->0) =      -44.22691344


--------------------------------------------------------------------------------------------------------




----------------------------------------- Iteration    1(  23)  ---------------------------------------


    POTLOK:  cpu time  114.3960: real time  114.3545
    SETDIJ:  cpu time    0.0560: real time    0.0549
     EDDAV:  cpu time  169.8200: real time  169.7698
       DOS:  cpu time    0.0080: real time    0.0063
    CHARGE:  cpu time    9.6880: real time    9.6839
    MIXING:  cpu time    0.1240: real time    0.1253
    --------------------------------------------
      LOOP:  cpu time  294.0920: real time  293.9989

 eigenvalue-minimisations  :  2384
 total energy-change (2. order) :-0.2542458E-01  (-0.1118863E-02)
 number of electron     127.9999999 magnetization       0.0725598
 augmentation part       -7.9523336 magnetization       0.0710692

 Broyden mixing:
  rms(total) = 0.78627E-01    rms(broyden)= 0.78627E-01
  rms(prec ) = 0.79186E-01
  weight for this iteration     100.00

 eigenvalues of (default mixing * dielectric matrix)
  average eigenvalue GAMMA=   1.5124
 10.1148  2.9588  2.9588  2.3830  1.4843  1.0590  1.0590  0.9148  0.7274  0.6653
  0.6653  0.5887  0.5190  0.3645  0.3284  0.3284  0.1006  0.0034

 Free energy of the ion-electron system (eV)
  ---------------------------------------------------
  alpha Z        PSCENC =        94.42171512
  Ewald energy   TEWEN  =     17215.94846186
  -Hartree energ DENC   =    -24418.41676365
  -exchange      EXHF   =         0.00000000
  -V(xc)+E(xc)   XCENC  =       288.77876390
  PAW double counting   =     10767.63882509   -10656.26925019
  entropy T*S    EENTRO =        -0.00000000
  eigenvalues    EBANDS =     -2002.28391319
  atomic energy  EATOM  =      8665.92982304
  Solvation  Ediel_sol  =         0.00000000
  ---------------------------------------------------
  free energy    TOTEN  =       -44.25233802 eV

  energy without entropy =      -44.25233802  energy(sigma->0) =      -44.25233802


--------------------------------------------------------------------------------------------------------




----------------------------------------- Iteration    1(  24)  ---------------------------------------


    POTLOK:  cpu time  116.1600: real time  116.1252
    SETDIJ:  cpu time    0.0680: real time    0.0661
     EDDAV:  cpu time  163.8120: real time  163.7742
       DOS:  cpu time    0.0040: real time    0.0078
    CHARGE:  cpu time    7.8280: real time    7.8248
    MIXING:  cpu time    0.1240: real time    0.1244
    --------------------------------------------
      LOOP:  cpu time  288.0080: real time  287.9344

 eigenvalue-minimisations  :  2312
 total energy-change (2. order) :-0.8869104E-02  (-0.5491004E-03)
 number of electron     127.9999999 magnetization       0.0577371
 augmentation part       -7.9520784 magnetization       0.0571926

 Broyden mixing:
  rms(total) = 0.71627E-01    rms(broyden)= 0.71627E-01
  rms(prec ) = 0.72171E-01
  weight for this iteration     100.00

 eigenvalues of (default mixing * dielectric matrix)
  average eigenvalue GAMMA=   1.5172
 10.2232  3.0131  3.0131  2.5415  1.7684  1.0903  1.0903  0.9200  0.9200  0.6912
  0.6912  0.6323  0.5883  0.5191  0.3646  0.3284  0.3284  0.1006  0.0034

 Free energy of the ion-electron system (eV)
  ---------------------------------------------------
  alpha Z        PSCENC =        94.42171512
  Ewald energy   TEWEN  =     17215.94846186
  -Hartree energ DENC   =    -24418.40991440
  -exchange      EXHF   =         0.00000000
  -V(xc)+E(xc)   XCENC  =       288.77321134
  PAW double counting   =     10760.44828471   -10649.07113445
  entropy T*S    EENTRO =        -0.00000000
  eigenvalues    EBANDS =     -2002.30165434
  atomic energy  EATOM  =      8665.92982304
  Solvation  Ediel_sol  =         0.00000000
  ---------------------------------------------------
  free energy    TOTEN  =       -44.26120712 eV

  energy without entropy =      -44.26120712  energy(sigma->0) =      -44.26120712


--------------------------------------------------------------------------------------------------------




----------------------------------------- Iteration    1(  25)  ---------------------------------------


    POTLOK:  cpu time  120.6000: real time  120.5628
    SETDIJ:  cpu time    0.0800: real time    0.0801
     EDDAV:  cpu time  148.3000: real time  148.4182
       DOS:  cpu time    0.0080: real time    0.0069
    CHARGE:  cpu time    8.1840: real time    8.1812
    MIXING:  cpu time    0.1240: real time    0.1250
    --------------------------------------------
      LOOP:  cpu time  277.3000: real time  277.3792

 eigenvalue-minimisations  :  2360
 total energy-change (2. order) :-0.6431561E-02  (-0.6402470E-04)
 number of electron     127.9999999 magnetization       0.0416105
 augmentation part       -7.9519020 magnetization       0.0414734

 Broyden mixing:
  rms(total) = 0.65432E-01    rms(broyden)= 0.65432E-01
  rms(prec ) = 0.65966E-01
  weight for this iteration     100.00

 eigenvalues of (default mixing * dielectric matrix)
  average eigenvalue GAMMA=   1.5723
 10.2204  3.3304  3.3304  2.4463  2.4463  1.2685  1.2685  1.0537  1.0537  0.8082
  0.7285  0.6339  0.6339  0.5780  0.5192  0.3645  0.3284  0.3284  0.1006  0.0034

 Free energy of the ion-electron system (eV)
  ---------------------------------------------------
  alpha Z        PSCENC =        94.42171512
  Ewald energy   TEWEN  =     17215.94846186
  -Hartree energ DENC   =    -24418.49509134
  -exchange      EXHF   =         0.00000000
  -V(xc)+E(xc)   XCENC  =       288.77372026
  PAW double counting   =     10757.20677095   -10645.82258783
  entropy T*S    EENTRO =        -0.00000000
  eigenvalues    EBANDS =     -2002.23045075
  atomic energy  EATOM  =      8665.92982304
  Solvation  Ediel_sol  =         0.00000000
  ---------------------------------------------------
  free energy    TOTEN  =       -44.26763868 eV

  energy without entropy =      -44.26763868  energy(sigma->0) =      -44.26763868


--------------------------------------------------------------------------------------------------------




----------------------------------------- Iteration    1(  26)  ---------------------------------------


    POTLOK:  cpu time  121.9560: real time  121.9127
    SETDIJ:  cpu time    0.1040: real time    0.1035
     EDDAV:  cpu time  149.0720: real time  149.0351
       DOS:  cpu time    0.0040: real time    0.0053
    CHARGE:  cpu time    9.2600: real time    9.2572
    MIXING:  cpu time    0.1320: real time    0.1323
    --------------------------------------------
      LOOP:  cpu time  280.5280: real time  280.4515

 eigenvalue-minimisations  :  2280
 total energy-change (2. order) :-0.8804179E-02  (-0.6697530E-04)
 number of electron     127.9999999 magnetization       0.0232096
 augmentation part       -7.9514050 magnetization       0.0234049

 Broyden mixing:
  rms(total) = 0.55756E-01    rms(broyden)= 0.55756E-01
  rms(prec ) = 0.56257E-01
  weight for this iteration     100.00

 eigenvalues of (default mixing * dielectric matrix)
  average eigenvalue GAMMA=   1.6808
 10.2494  5.9859  3.0229  3.0229  2.3572  1.3494  1.2338  1.2338  1.0400  0.8177
  0.8177  0.6667  0.6667  0.5940  0.5940  0.5189  0.3645  0.3284  0.3284  0.1006
  0.0034

 Free energy of the ion-electron system (eV)
  ---------------------------------------------------
  alpha Z        PSCENC =        94.42171512
  Ewald energy   TEWEN  =     17215.94846186
  -Hartree energ DENC   =    -24418.74468528
  -exchange      EXHF   =         0.00000000
  -V(xc)+E(xc)   XCENC  =       288.77724784
  PAW double counting   =     10753.48528482   -10642.09867739
  entropy T*S    EENTRO =        -0.00000000
  eigenvalues    EBANDS =     -2001.99561287
  atomic energy  EATOM  =      8665.92982304
  Solvation  Ediel_sol  =         0.00000000
  ---------------------------------------------------
  free energy    TOTEN  =       -44.27644286 eV

  energy without entropy =      -44.27644286  energy(sigma->0) =      -44.27644286


--------------------------------------------------------------------------------------------------------




----------------------------------------- Iteration    1(  27)  ---------------------------------------


    POTLOK:  cpu time  120.6360: real time  120.5925
    SETDIJ:  cpu time    0.0800: real time    0.0829
     EDDAV:  cpu time  149.7520: real time  149.7118
       DOS:  cpu time    0.0040: real time    0.0054
    CHARGE:  cpu time    9.1520: real time    9.1495
    MIXING:  cpu time    0.1560: real time    0.1536
    --------------------------------------------
      LOOP:  cpu time  279.7800: real time  279.7005

 eigenvalue-minimisations  :  2288
 total energy-change (2. order) :-0.9188477E-02  (-0.5957425E-04)
 number of electron     127.9999999 magnetization       0.0124293
[...]
  0.000   0.000  -0.000   0.000   0.000  -0.000   0.000   0.000
 -0.001  -0.001   0.000  -0.000  -0.000   0.000  -0.000  -0.000
 -0.000  -0.000   0.000   0.000  -0.000   0.000   0.000  -0.000
 -0.000  -0.000   0.000   0.000   0.000   0.000   0.000   0.000
  0.000  -0.000  -0.000  -0.000   0.000  -0.000  -0.000   0.000
  0.000  -0.000   0.001   0.000   0.000   0.001   0.000   0.000
  0.000   0.000   0.000   0.000  -0.000   0.000   0.000  -0.000
 -0.000  -0.000  -0.000  -0.001   0.000  -0.000  -0.001   0.000
 -0.000  -0.000  -0.000  -0.000   0.000  -0.000  -0.000   0.000
  0.000   0.000  -0.000  -0.000  -0.001  -0.000  -0.000  -0.001
 -0.000  -0.000  -0.000  -0.001  -0.000  -0.000  -0.001  -0.000
 total augmentation occupancy for first ion, spin component:           1
  2.001  -0.016   0.000   0.000  -0.000  -0.000   0.000   0.000   0.000   0.000  -0.003  -0.000  -0.000   0.000   0.000   0.003
 -0.016   0.766   0.000  -0.000   0.000  -0.000   0.000   0.000  -0.000   0.000  -0.067  -0.000  -0.000   0.000   0.000   0.041
  0.000   0.000  17.712   0.000   0.000 -15.431   0.000   0.000   0.000   0.000   0.000   0.153   0.682   0.000   0.000  -0.000
  0.000  -0.000   0.000  17.371  -0.002   0.000 -15.084   0.002   0.000   0.000  -0.000   0.000   0.000  -0.000  -0.000   0.000
 -0.000   0.000   0.000  -0.002  17.712   0.000   0.002 -15.431   0.682  -0.152   0.000   0.000   0.000  -0.403   0.072  -0.000
 -0.000  -0.000 -15.431   0.000   0.000  15.126   0.000   0.000   0.000   0.000  -0.000  -0.154  -0.695   0.000   0.000   0.000
  0.000   0.000   0.000 -15.084   0.002   0.000  14.774  -0.002  -0.000  -0.000   0.000   0.000   0.000   0.000   0.000   0.000
  0.000   0.000   0.000   0.002 -15.431   0.000  -0.002  15.126  -0.695   0.153  -0.000   0.000   0.000   0.413  -0.073  -0.000
  0.000  -0.000   0.000   0.000   0.682   0.000  -0.000  -0.695   3.217   2.296   0.000   0.000   0.000  -1.831  -1.343   0.000
  0.000   0.000   0.000   0.000  -0.152   0.000  -0.000   0.153   2.296   4.640   0.000   0.000   0.000  -1.343  -2.659   0.000
 -0.003  -0.067   0.000  -0.000   0.000  -0.000   0.000  -0.000   0.000   0.000   1.410  -0.000   0.000   0.000  -0.000  -0.777
 -0.000  -0.000   0.153   0.000   0.000  -0.154   0.000   0.000   0.000   0.000  -0.000   4.640  -2.297   0.000   0.000   0.000
 -0.000  -0.000   0.682   0.000   0.000  -0.695   0.000   0.000   0.000   0.000   0.000  -2.297   3.217   0.000   0.000  -0.000
  0.000   0.000   0.000  -0.000  -0.403   0.000   0.000   0.413  -1.831  -1.343   0.000   0.000   0.000   1.049   0.792   0.000
  0.000   0.000   0.000  -0.000   0.072   0.000   0.000  -0.073  -1.343  -2.659  -0.000   0.000   0.000   0.792   1.535  -0.000
  0.003   0.041  -0.000   0.000  -0.000   0.000   0.000  -0.000   0.000   0.000  -0.777   0.000  -0.000   0.000  -0.000   0.428
  0.000   0.000  -0.073   0.000   0.000   0.073   0.000   0.000   0.000   0.000   0.000  -2.659   1.343   0.000  -0.000  -0.000
  0.000  -0.000  -0.403   0.000  -0.000   0.413   0.000   0.000   0.000   0.000  -0.000   1.343  -1.832   0.000  -0.000   0.000
  0.000  -0.016   0.000   0.000   0.000  -0.000   0.000   0.000   0.000  -0.000   0.009  -0.000   0.000   0.000   0.000  -0.006
  0.000  -0.000  -0.432   0.000   0.000   0.436   0.000   0.000  -0.000   0.000  -0.000  -0.050  -0.001   0.000   0.000   0.000
  0.000  -0.000  -0.165   0.000   0.000   0.167   0.000   0.000  -0.000   0.000  -0.000  -0.006  -0.006  -0.000   0.000   0.000
  0.000   0.000   0.000   0.348  -0.000   0.000  -0.351   0.000   0.000  -0.000  -0.000   0.000   0.000  -0.000   0.000   0.000
  0.000   0.000   0.000   0.000  -0.165   0.000  -0.000   0.167  -0.006   0.006   0.000  -0.000   0.000   0.002  -0.003  -0.000
  0.000   0.000   0.000   0.000   0.432   0.000  -0.000  -0.437   0.001  -0.050   0.000   0.000   0.000  -0.000   0.027   0.000
 -0.000  -0.000   0.000   0.373  -0.000   0.000  -0.377   0.000   0.000  -0.000   0.000  -0.000   0.000  -0.000  -0.000   0.000
 total augmentation occupancy for first ion, spin component:           2
  0.000   0.000  -0.000   0.000   0.000   0.000   0.000  -0.000   0.000  -0.000   0.000   0.000  -0.000   0.000   0.000   0.000
  0.000  -0.000  -0.000   0.000   0.000   0.000   0.000  -0.000   0.000   0.000   0.000  -0.000  -0.000  -0.000   0.000  -0.000
 -0.000  -0.000  -0.000   0.000   0.000   0.000   0.000   0.000   0.000   0.000  -0.000  -0.000  -0.000   0.000   0.000   0.000
  0.000   0.000   0.000  -0.000  -0.000   0.000   0.000   0.000  -0.000  -0.000   0.000   0.000  -0.000   0.000   0.000   0.000
  0.000   0.000   0.000  -0.000  -0.000   0.000   0.000   0.000   0.000   0.000  -0.000  -0.000  -0.000  -0.000  -0.000  -0.000
  0.000   0.000   0.000   0.000   0.000  -0.000   0.000   0.000   0.000  -0.000  -0.000   0.000  -0.000   0.000   0.000  -0.000
  0.000   0.000   0.000   0.000   0.000   0.000  -0.000  -0.000   0.000   0.000   0.000   0.000   0.000  -0.000  -0.000   0.000
 -0.000  -0.000   0.000   0.000   0.000   0.000  -0.000  -0.000  -0.000  -0.000   0.000   0.000   0.000  -0.000   0.000   0.000
  0.000   0.000   0.000  -0.000   0.000   0.000   0.000  -0.000  -0.000  -0.000  -0.000   0.000   0.000   0.000  -0.000   0.000
 -0.000   0.000   0.000  -0.000   0.000  -0.000   0.000  -0.000  -0.000  -0.000  -0.000   0.000   0.000  -0.000   0.000   0.000
  0.000   0.000  -0.000   0.000  -0.000  -0.000   0.000   0.000  -0.000  -0.000  -0.000  -0.000  -0.000   0.000  -0.000   0.000
  0.000  -0.000  -0.000   0.000  -0.000   0.000   0.000   0.000   0.000   0.000  -0.000  -0.000   0.000   0.000  -0.000   0.000
 -0.000  -0.000  -0.000  -0.000  -0.000  -0.000   0.000   0.000   0.000   0.000  -0.000   0.000  -0.000   0.000   0.000   0.000
  0.000  -0.000   0.000   0.000  -0.000   0.000  -0.000  -0.000   0.000  -0.000   0.000   0.000   0.000  -0.000   0.000   0.000
  0.000   0.000   0.000   0.000  -0.000   0.000  -0.000   0.000  -0.000   0.000  -0.000  -0.000   0.000   0.000  -0.000   0.000
  0.000  -0.000   0.000   0.000  -0.000  -0.000   0.000   0.000   0.000   0.000   0.000   0.000   0.000   0.000   0.000   0.000
  0.000   0.000   0.000   0.000   0.000  -0.000  -0.000   0.000   0.000  -0.000  -0.000   0.000   0.000   0.000   0.000   0.000
  0.000   0.000   0.000  -0.000   0.000  -0.000   0.000   0.000   0.000   0.000   0.000   0.000   0.000   0.000   0.000  -0.000
  0.000   0.000   0.000  -0.000  -0.000  -0.000   0.000  -0.000   0.000   0.000   0.000  -0.000   0.000   0.000   0.000  -0.000
  0.000   0.000   0.000   0.000   0.000  -0.000   0.000  -0.000   0.000   0.000   0.000   0.000  -0.000   0.000   0.000  -0.000
  0.000   0.000  -0.000   0.000   0.000   0.000  -0.000  -0.000   0.000   0.000   0.000  -0.000   0.000   0.000   0.000   0.000
  0.000  -0.000  -0.000  -0.000  -0.000   0.000   0.000   0.000   0.000  -0.000   0.000  -0.000   0.000  -0.000   0.000   0.000
  0.000   0.000   0.000  -0.000  -0.000  -0.000   0.000   0.000  -0.000   0.000   0.000   0.000   0.000   0.000  -0.000   0.000
 -0.000   0.000   0.000   0.000  -0.000   0.000  -0.000   0.000  -0.000   0.000   0.000   0.000  -0.000   0.000  -0.000  -0.000
  0.000   0.000   0.000  -0.000  -0.000   0.000   0.000   0.000   0.000  -0.000   0.000  -0.000   0.000   0.000   0.000   0.000


------------------------ aborting loop because EDIFF is reached ----------------------------------------





 total charge     

# of ion     s       p       d       f       tot
------------------------------------------------
  1        2.155   6.357   0.827   0.067   9.405
  2        2.155   6.357   0.827   0.067   9.405
  3        2.155   6.357   0.827   0.067   9.405
  4        2.155   6.357   0.827   0.067   9.405
  5        1.666   3.338   0.010   0.000   5.015
  6        1.666   3.338   0.010   0.000   5.015
  7        1.666   3.338   0.010   0.000   5.015
  8        1.666   3.338   0.010   0.000   5.015
  9        1.666   3.338   0.010   0.000   5.015
 10        1.666   3.338   0.010   0.000   5.015
 11        1.666   3.338   0.010   0.000   5.015
 12        1.666   3.338   0.010   0.000   5.015
 13        1.666   3.338   0.010   0.000   5.015
 14        1.666   3.338   0.010   0.000   5.015
 15        1.666   3.338   0.010   0.000   5.015
 16        1.666   3.338   0.010   0.000   5.015
------------------------------------------------
tot       28.614  65.486   3.429   0.266  97.796




 magnetization (x)

# of ion     s       p       d       f       tot
------------------------------------------------
  1        0.000  -0.000  -0.000  -0.000  -0.000
  2       -0.000  -0.000  -0.000  -0.000  -0.000
  3        0.000  -0.000  -0.000  -0.000  -0.000
  4       -0.000  -0.000  -0.000  -0.000  -0.000
  5       -0.000   0.000  -0.000   0.000  -0.000
  6       -0.000  -0.000  -0.000   0.000  -0.000
  7        0.000   0.000   0.000   0.000   0.000
  8       -0.000   0.000  -0.000   0.000  -0.000
  9       -0.000  -0.000  -0.000   0.000  -0.000
 10        0.000   0.000   0.000   0.000   0.000
 11       -0.000   0.000  -0.000   0.000   0.000
 12        0.000  -0.000  -0.000   0.000  -0.000
 13       -0.000  -0.000   0.000   0.000  -0.000
 14       -0.000   0.000  -0.000   0.000   0.000
 15        0.000  -0.000  -0.000   0.000  -0.000
 16       -0.000  -0.000   0.000   0.000  -0.000
------------------------------------------------
tot        0.000  -0.000  -0.000  -0.000  -0.000


    CHARGE:  cpu time    8.3400: real time    8.3391
    FORLOC:  cpu time    0.0880: real time    0.0869
    FORNL :  cpu time   19.4160: real time   19.4102
    STRESS:  cpu time  140.1720: real time  140.1286
    FORCOR:  cpu time   84.9880: real time   84.9814
    FORHAR:  cpu time    0.8120: real time    0.8111
    MIXING:  cpu time    0.0760: real time    0.0777
    OFIELD:  cpu time    0.0000: real time    0.0001

  FORCE on cell =-STRESS in cart. coord.  units (eV):
  Direction    XX          YY          ZZ          XY          YZ          ZX
  --------------------------------------------------------------------------------------
  Alpha Z    94.30068    94.30068    94.30068
  Ewald   21296.82968 21296.75629-25399.59372     0.00000     0.00000    -0.17556
  Hartree 23055.15174 23055.08660-21709.13417     0.00000    -0.00000    -0.08887
  E(xc)    -505.06444  -505.06423  -503.01856     0.00000     0.00000    -0.00019
  Local  -46086.22315-46086.08487 45370.02629    -0.00000     0.00000     0.26202
  n-local   424.17173   424.17438   424.46466     0.00000     0.00000     0.00023
  augment     3.78055     3.78142     3.52308    -0.00002    -0.00009    -0.00197
  Kinetic  1717.05337  1717.03677  1719.40679     0.00000    -0.00000     0.00106
  Fock        0.00000     0.00000     0.00000     0.00000     0.00000     0.00000
  -------------------------------------------------------------------------------------
  Total       0.00015    -0.01295    -0.02495     0.00000     0.00000    -0.00328
  in kB       0.00011    -0.00953    -0.01835     0.00000     0.00000    -0.00241
  external pressure =       -0.01 kB  Pullay stress =        0.00 kB


 VOLUME and BASIS-vectors are now :
 -----------------------------------------------------------------------------
  energy-cutoff  :      700.00
  volume of cell :     2177.81
      direct lattice vectors                 reciprocal lattice vectors
     7.091458561  0.000000000  0.000000000     0.141014714 -0.000000000  0.049991829
     0.000000000 12.284128696  0.000000000     0.000000000  0.081405855 -0.000000000
    -8.862874621  0.000000000 25.000000000     0.000000000  0.000000000  0.040000000

  length of vectors
     7.091458561 12.284128696 26.524527264     0.149613945  0.081405855  0.040000000


 FORCES acting on ions
    electron-ion (+dipol)            ewald-force                    non-local-force                 convergence-correction
 -----------------------------------------------------------------------------------------------
   0.692E-02 -.188E-01 -.109E-03   0.160E-02 0.193E-01 -.564E-03   -.576E-19 -.614E-03 -.136E-19   0.689E-08 0.250E-05 0.129E-07
   0.692E-02 0.172E-01 -.108E-03   0.160E-02 -.183E-01 -.564E-03   0.407E-19 0.614E-03 -.136E-19   0.705E-08 -.251E-05 0.129E-07
   0.247E-02 -.188E-01 -.155E-03   -.194E-04 0.194E-01 -.794E-03   0.102E-19 -.614E-03 -.136E-19   0.708E-08 0.251E-05 0.138E-07
   0.247E-02 0.168E-01 -.154E-03   -.194E-04 -.204E-01 -.794E-03   0.678E-20 0.614E-03 -.136E-19   0.724E-08 -.251E-05 0.138E-07
   0.409E+02 0.708E+02 -.464E+03   -.412E+02 -.713E+02 0.465E+03   0.296E+00 0.514E+00 -.837E+00   0.433E-05 0.545E-05 -.104E-04
   0.409E+02 -.708E+02 -.464E+03   -.412E+02 0.713E+02 0.465E+03   0.296E+00 -.514E+00 -.837E+00   0.433E-05 -.545E-05 -.104E-04
   -.817E+02 0.495E-03 -.464E+03   0.823E+02 0.389E-03 0.465E+03   -.593E+00 0.339E-20 -.837E+00   -.133E-04 -.122E-08 -.681E-06
   0.409E+02 0.708E+02 -.464E+03   -.412E+02 -.713E+02 0.465E+03   0.296E+00 0.514E+00 -.837E+00   0.433E-05 0.545E-05 -.104E-04
   0.409E+02 -.708E+02 -.464E+03   -.412E+02 0.713E+02 0.465E+03   0.296E+00 -.514E+00 -.837E+00   0.433E-05 -.546E-05 -.104E-04
   -.817E+02 0.416E-03 -.464E+03   0.823E+02 -.109E-04 0.465E+03   -.593E+00 0.169E-20 -.837E+00   -.133E-04 0.378E-08 -.682E-06
   0.817E+02 0.404E-03 0.464E+03   -.823E+02 -.109E-04 -.465E+03   0.593E+00 0.000E+00 0.837E+00   0.133E-04 0.376E-08 0.687E-06
   -.409E+02 0.708E+02 0.464E+03   0.412E+02 -.713E+02 -.465E+03   -.296E+00 0.514E+00 0.837E+00   -.434E-05 0.545E-05 0.104E-04
   -.409E+02 -.708E+02 0.464E+03   0.412E+02 0.713E+02 -.465E+03   -.296E+00 -.514E+00 0.837E+00   -.434E-05 -.545E-05 0.104E-04
   0.817E+02 0.483E-03 0.464E+03   -.823E+02 0.389E-03 -.465E+03   0.593E+00 0.000E+00 0.837E+00   0.133E-04 -.123E-08 0.687E-06
   -.409E+02 0.708E+02 0.464E+03   0.412E+02 -.713E+02 -.465E+03   -.296E+00 0.514E+00 0.837E+00   -.433E-05 0.545E-05 0.104E-04
   -.409E+02 -.708E+02 0.464E+03   0.412E+02 0.713E+02 -.465E+03   -.296E+00 -.514E+00 0.837E+00   -.433E-05 -.545E-05 0.104E-04
 -----------------------------------------------------------------------------------------------
   0.877E-01 -.177E-01 -.465E-01   -.142E-13 -.426E-13 0.739E-12   0.555E-16 0.333E-15 -.111E-15   0.322E-07 -.493E-08 0.849E-07


 POSITION                                       TOTAL-FORCE (eV/Angst)
 -----------------------------------------------------------------------------------
     -1.42192      7.66625      4.67793        -0.000000      0.000857      0.000000
     -1.42192     11.76118      4.67793         0.000000     -0.000857     -0.000000
      2.12382      1.52418      4.67793         0.000000      0.000857      0.000000
      2.12382      5.61911      4.67793         0.000000     -0.000857     -0.000000
     -0.17441      5.73266      6.27544        -0.000132      0.000254     -0.000039
     -0.17441      1.41065      6.27544        -0.000132     -0.000254     -0.000039
     -0.37140      9.71371      6.27529         0.000319      0.000000      0.000367
      3.37132     11.87471      6.27544        -0.000132      0.000254     -0.000039
      3.37132      7.55271      6.27544        -0.000132     -0.000254     -0.000039
      3.17433      3.57165      6.27529         0.000319      0.000000      0.000367
      1.07329      3.57165      3.08059        -0.000319      0.000000     -0.000367
      0.87631     11.87471      3.08041         0.000132      0.000254      0.000039
      0.87631      7.55271      3.08041         0.000132     -0.000254      0.000039
      4.61903      9.71371      3.08059        -0.000319      0.000000     -0.000367
      4.42204      5.73266      3.08041         0.000132      0.000254      0.000039
      4.42204      1.41065      3.08041         0.000132     -0.000254      0.000039
 -----------------------------------------------------------------------------------
    total drift:                                0.087674     -0.017739     -0.046507


--------------------------------------------------------------------------------------------------------



  FREE ENERGIE OF THE ION-ELECTRON SYSTEM (eV)
  ---------------------------------------------------
  free  energy   TOTEN  =       -44.33195237 eV

  energy  without entropy=      -44.33195237  energy(sigma->0) =      -44.33195237

 d Force = 0.1787772E-06[ 0.119E-06, 0.238E-06]  d Energy = 0.1717080E-04-0.170E-04
 d Force =-0.2743132E-01[-0.274E-01,-0.274E-01]  d Ewald  = 0.1386533E+00-0.166E+00


--------------------------------------------------------------------------------------------------------


    POTLOK:  cpu time   85.6160: real time   85.5884


--------------------------------------------------------------------------------------------------------




--------------------------------------------------------------------------------------------------------


  
 reached required accuracy - stopping structural energy minimisation
 writing wavefunctions
     LOOP+:  cpu time 2101.5920: real time 2108.2618
    4ORBIT:  cpu time    0.0000: real time    0.0000



 total charge     

# of ion     s       p       d       f       tot
------------------------------------------------
  1        2.155   6.357   0.827   0.067   9.405
  2        2.155   6.357   0.827   0.067   9.405
  3        2.155   6.357   0.827   0.067   9.405
  4        2.155   6.357   0.827   0.067   9.405
  5        1.666   3.338   0.010   0.000   5.015
  6        1.666   3.338   0.010   0.000   5.015
  7        1.666   3.338   0.010   0.000   5.015
  8        1.666   3.338   0.010   0.000   5.015
  9        1.666   3.338   0.010   0.000   5.015
 10        1.666   3.338   0.010   0.000   5.015
 11        1.666   3.338   0.010   0.000   5.015
 12        1.666   3.338   0.010   0.000   5.015
 13        1.666   3.338   0.010   0.000   5.015
 14        1.666   3.338   0.010   0.000   5.015
 15        1.666   3.338   0.010   0.000   5.015
 16        1.666   3.338   0.010   0.000   5.015
------------------------------------------------
tot       28.614  65.486   3.429   0.266  97.796




 magnetization (x)

# of ion     s       p       d       f       tot
------------------------------------------------
  1        0.000  -0.000  -0.000  -0.000  -0.000
  2       -0.000  -0.000  -0.000  -0.000  -0.000
  3        0.000  -0.000  -0.000  -0.000  -0.000
  4       -0.000  -0.000  -0.000  -0.000  -0.000
  5       -0.000   0.000  -0.000   0.000  -0.000
  6       -0.000  -0.000  -0.000   0.000  -0.000
  7        0.000   0.000   0.000   0.000   0.000
  8       -0.000   0.000  -0.000   0.000  -0.000
  9       -0.000  -0.000  -0.000   0.000  -0.000
 10        0.000   0.000   0.000   0.000   0.000
 11       -0.000   0.000  -0.000   0.000   0.000
 12        0.000  -0.000  -0.000   0.000  -0.000
 13       -0.000  -0.000   0.000   0.000  -0.000
 14       -0.000   0.000  -0.000   0.000   0.000
 15        0.000  -0.000  -0.000   0.000  -0.000
 16       -0.000  -0.000   0.000   0.000  -0.000
------------------------------------------------
tot        0.000  -0.000  -0.000  -0.000  -0.000



 total amount of memory used by VASP on root node   434467. kBytes
========================================================================

   base      :      30000. kBytes
   nonl-proj :     121602. kBytes
   fftplans  :      52369. kBytes
   grid      :     133050. kBytes
   one-center:        480. kBytes
   wavefun   :      96966. kBytes

  
  
 General timing and accounting informations for this job:
 ========================================================
  
                  Total CPU time used (sec):   146427.500
                            User time (sec):   143759.192
                          System time (sec):     2668.312
                         Elapsed time (sec):   146428.073
  
                   Maximum memory used (kb):     1013820.
                   Average memory used (kb):           0.
  
                          Minor page faults:    952487657
                          Major page faults:            4
                 Voluntary context switches:        82831
