       N       E                     dE             d eps       ncg     rms          rms(c)
DAV:   1     0.215504912173E+03    0.21550E+03   -0.98817E+03  1216   0.143E+03
DAV:   2     0.187245499710E+02   -0.19678E+03   -0.18261E+03  1592   0.272E+02
DAV:   3    -0.202321138138E+02   -0.38957E+02   -0.37722E+02  1536   0.138E+02
DAV:   4    -0.214227900858E+02   -0.11907E+01   -0.11834E+01  1584   0.295E+01
DAV:   5    -0.214521413552E+02   -0.29351E-01   -0.29349E-01  1720   0.405E+00    0.282E+01
DAV:   6    -0.287168838046E+02   -0.72647E+01   -0.73705E+01  1520   0.166E+02    0.467E+01
DAV:   7    -0.131781144649E+02    0.15539E+02   -0.19486E+01  1672   0.111E+02    0.904E+00
DAV:   8    -0.132714111288E+02   -0.93297E-01   -0.46979E+00  1808   0.367E+01    0.533E+00
DAV:   9    -0.133355532247E+02   -0.64142E-01   -0.46657E-01  1768   0.160E+01    0.295E+00
DAV:  10    -0.133876188213E+02   -0.52066E-01   -0.84934E-02  1496   0.536E+00    0.195E+00
DAV:  11    -0.134662251502E+02   -0.78606E-01   -0.10167E-01  1512   0.799E+00    0.156E+00
DAV:  12    -0.135331962535E+02   -0.66971E-01   -0.79660E-02  1544   0.619E+00    0.126E+00
DAV:  13    -0.135806485941E+02   -0.47452E-01   -0.76710E-02  1264   0.296E+00    0.883E-01
DAV:  14    -0.135909536936E+02   -0.10305E-01   -0.71299E-03  1592   0.221E+00    0.420E-01
DAV:  15    -0.135872813640E+02    0.36723E-02   -0.23330E-03  1832   0.103E+00    0.324E-01
DAV:  16    -0.135871575702E+02    0.12379E-03   -0.33980E-04  1416   0.316E-01    0.141E-01
DAV:  17    -0.135866277709E+02    0.52980E-03   -0.90206E-05  1464   0.895E-02    0.850E-02
DAV:  18    -0.135863033972E+02    0.32437E-03   -0.68812E-05  1320   0.571E-02    0.387E-02
DAV:  19    -0.135862522560E+02    0.51141E-04   -0.10688E-05  1552   0.270E-02    0.207E-02
DAV:  20    -0.135862000408E+02    0.52215E-04   -0.76017E-06  1384   0.183E-02    0.709E-03
DAV:  21    -0.135861440728E+02    0.55968E-04   -0.10741E-05  1424   0.193E-02    0.771E-03
DAV:  22    -0.135861591159E+02   -0.15043E-04   -0.21232E-06  1472   0.125E-02    0.805E-03
DAV:  23    -0.135861699738E+02   -0.10858E-04   -0.28979E-06  1448   0.811E-03    0.602E-03
DAV:  24    -0.135861602528E+02    0.97210E-05   -0.31672E-06  1408   0.104E-02    0.222E-03
DAV:  25    -0.135861538513E+02    0.64014E-05   -0.32182E-06  1240   0.117E-02    0.788E-04
DAV:  26    -0.135861625137E+02   -0.86624E-05   -0.29391E-06  1440   0.108E-02    0.379E-04
DAV:  27    -0.135861546319E+02    0.78818E-05   -0.27123E-06  1232   0.114E-02    0.255E-04
DAV:  28    -0.135861651526E+02   -0.10521E-04   -0.24676E-06  1288   0.982E-03    0.383E-04
DAV:  29    -0.135861617197E+02    0.34329E-05   -0.43347E-06  1304   0.111E-02    0.242E-04
DAV:  30    -0.135861605411E+02    0.11786E-05   -0.27817E-06  1240   0.901E-03    0.121E-04
DAV:  31    -0.135886457616E+02   -0.24852E-02   -0.66406E-06  1360   0.101E-02    0.162E-01
DAV:  32    -0.135861318392E+02    0.25139E-02   -0.19137E+00  1280   0.180E-01    0.504E-03
DAV:  33    -0.135861698683E+02   -0.38029E-04   -0.66693E-06  1480   0.399E-02    0.446E-03
DAV:  34    -0.135861902283E+02   -0.20360E-04   -0.55489E-06  1520   0.178E-02    0.214E-03
DAV:  35    -0.135861768825E+02    0.13346E-04   -0.17797E-05  1368   0.140E-02    0.143E-03
DAV:  36    -0.140075603447E+02   -0.42138E+00   -0.22015E+00  1472   0.207E-02    0.424E+00
DAV:  37    -0.135852371914E+02    0.42232E+00   -0.70285E+01  1216   0.660E+00    0.125E-01
DAV:  38    -0.135858300705E+02   -0.59288E-03   -0.20849E-02  1680   0.941E-01    0.263E-02
DAV:  39    -0.135860526735E+02   -0.22260E-03   -0.41998E-04  1568   0.129E-01    0.992E-03
DAV:  40    -0.135861085143E+02   -0.55841E-04   -0.19323E-05  1480   0.293E-02    0.115E-02
DAV:  41    -0.135861728359E+02   -0.64322E-04   -0.30011E-06  1424   0.143E-02    0.140E-02
DAV:  42    -0.135861819910E+02   -0.91551E-05   -0.80398E-07  1344   0.822E-03    0.141E-02
DAV:  43    -0.135861903451E+02   -0.83541E-05   -0.10708E-06  1512   0.819E-03    0.123E-02
DAV:  44    -0.135862112394E+02   -0.20894E-04   -0.44713E-06  1640   0.126E-02    0.102E-02
DAV:  45    -0.135862218515E+02   -0.10612E-04   -0.24402E-06  1360   0.114E-02    0.890E-03
DAV:  46    -0.135862086677E+02    0.13184E-04   -0.31846E-06  1216   0.895E-03    0.695E-03
DAV:  47    -0.135862041235E+02    0.45442E-05   -0.17015E-07  1200   0.381E-03    0.585E-03
DAV:  48    -0.135862016387E+02    0.24848E-05   -0.97197E-08  1304   0.342E-03    0.451E-03
DAV:  49    -0.135862003852E+02    0.12535E-05   -0.57104E-08  1032   0.368E-03    0.277E-03
DAV:  50    -0.135862017566E+02   -0.13714E-05   -0.65558E-08  1048   0.321E-03    0.136E-03
DAV:  51    -0.135861998739E+02    0.18827E-05   -0.52113E-08   984   0.287E-03    0.101E-03
DAV:  52    -0.135862001236E+02   -0.24971E-06   -0.53794E-09  1176   0.876E-04    0.102E-03
DAV:  53    -0.135862006802E+02   -0.55663E-06   -0.51089E-09   944   0.963E-04    0.962E-04
DAV:  54    -0.135862024675E+02   -0.17872E-05   -0.20931E-08   960   0.185E-03    0.721E-04
DAV:  55    -0.135862041348E+02   -0.16673E-05   -0.24873E-08   992   0.194E-03    0.559E-04
DAV:  56    -0.135862053276E+02   -0.11927E-05   -0.37990E-08   992   0.221E-03    0.653E-04
DAV:  57    -0.135862050241E+02    0.30343E-06   -0.12931E-08   960   0.142E-03    0.540E-04
DAV:  58    -0.135862052673E+02   -0.24316E-06   -0.65217E-08  1080   0.306E-03    0.333E-04
DAV:  59    -0.136235276112E+02   -0.37322E-01   -0.18635E-01  1272   0.598E-03    0.863E-01
DAV:  60    -0.135859937230E+02    0.37534E-01   -0.92681E+00  1224   0.737E-01    0.227E-02
DAV:  61    -0.135861239949E+02   -0.13027E-03   -0.11325E-04  1760   0.192E-01    0.197E-02
DAV:  62    -0.135861443512E+02   -0.20356E-04   -0.45237E-06  1560   0.325E-02    0.131E-02
DAV:  63    -0.135861782324E+02   -0.33881E-04   -0.64525E-06  1624   0.243E-02    0.525E-03
DAV:  64    -0.135862212006E+02   -0.42968E-04   -0.21497E-05  1312   0.178E-02    0.326E-03
DAV:  65    -0.135862250421E+02   -0.38415E-05   -0.56291E-05  1248   0.224E-02    0.223E-03
DAV:  66    -0.135861991899E+02    0.25852E-04   -0.35823E-05  1368   0.170E-02    0.201E-03
DAV:  67    -0.135862043701E+02   -0.51801E-05   -0.18268E-06  1328   0.598E-03    0.190E-03
DAV:  68    -0.135862046481E+02   -0.27804E-06   -0.16446E-06  1184   0.431E-03    0.179E-03
DAV:  69    -0.135862046349E+02    0.13235E-07   -0.21382E-06  1256   0.586E-03    0.170E-03
DAV:  70    -0.135862018275E+02    0.28074E-05   -0.11118E-06  1128   0.521E-03    0.146E-03
DAV:  71    -0.135862078228E+02   -0.59954E-05   -0.37170E-06  1224   0.705E-03    0.133E-03
DAV:  72    -0.135862113385E+02   -0.35156E-05   -0.15854E-05  1168   0.885E-03    0.112E-03
DAV:  73    -0.135862101941E+02    0.11443E-05   -0.78903E-05  1208   0.215E-02    0.106E-03
DAV:  74    -0.135862181601E+02   -0.79659E-05   -0.15537E-05  1128   0.115E-02    0.910E-04
DAV:  75    -0.135862228355E+02   -0.46754E-05   -0.39751E-06  1120   0.575E-03    0.862E-04
DAV:  76    -0.135862054220E+02    0.17414E-04   -0.92046E-06  1792   0.393E-02    0.131E-02
DAV:  77    -0.135862084723E+02   -0.30503E-05   -0.25577E-06  1696   0.156E-02    0.919E-03
DAV:  78    -0.135862107051E+02   -0.22329E-05   -0.94908E-07  1448   0.132E-02    0.553E-03
DAV:  79    -0.135862085650E+02    0.21401E-05   -0.38295E-07  1288   0.924E-03    0.459E-03
DAV:  80    -0.135862018456E+02    0.67194E-05   -0.18850E-07  1280   0.432E-03    0.461E-03
DAV:  81    -0.135862015686E+02    0.27704E-06   -0.13177E-06  1336   0.907E-03    0.373E-03
DAV:  82    -0.135861962864E+02    0.52822E-05   -0.15226E-06  1200   0.972E-03    0.165E-03
DAV:  83    -0.135861956241E+02    0.66233E-06   -0.58761E-07  1344   0.704E-03    0.876E-04
DAV:  84    -0.135861956501E+02   -0.26017E-07   -0.92793E-07  1456   0.662E-03
   1 F= -.13586196E+02 E0= -.13562733E+02  d E =-.135862E+02  mag=     0.9391
       N       E                     dE             d eps       ncg     rms          rms(c)
DAV:   1    -0.135862292781E+02   -0.33654E-04   -0.82429E-04  1560   0.355E-01    0.433E-02
DAV:   2    -0.135856918765E+02    0.53740E-03   -0.85100E-05  1656   0.225E-01    0.341E-02
DAV:   3    -0.135860356416E+02   -0.34377E-03   -0.66026E-05  1680   0.253E-01    0.338E-02
DAV:   4    -0.135859292059E+02    0.10644E-03   -0.26416E-05  1608   0.132E-01    0.617E-03
DAV:   5    -0.135861121306E+02   -0.18292E-03   -0.40899E-06  1272   0.172E-02    0.277E-03
DAV:   6    -0.135862171233E+02   -0.10499E-03   -0.98149E-07  1224   0.856E-03    0.103E-03
DAV:   7    -0.135862186788E+02   -0.15555E-05   -0.20039E-06  1384   0.925E-03    0.429E-04
DAV:   8    -0.135862223235E+02   -0.36446E-05   -0.22317E-06  1232   0.916E-03    0.300E-04
DAV:   9    -0.342467105273E+02   -0.20660E+02   -0.19918E+02  1936   0.109E-02    0.160E+01
DAV:  10    -0.135050189307E+02    0.20742E+02   -0.23344E+02  1448   0.277E+01    0.308E-01
DAV:  11    -0.135866609389E+02   -0.81642E-01   -0.96128E-01  1776   0.325E+00    0.241E-01
DAV:  12    -0.135862283911E+02    0.43255E-03   -0.98230E-03  1632   0.659E-01    0.956E-02
DAV:  13    -0.135862318670E+02   -0.34760E-05   -0.35383E-04  1640   0.113E-01    0.700E-02
DAV:  14    -0.135862058559E+02    0.26011E-04   -0.15107E-05  1688   0.515E-02    0.489E-02
DAV:  15    -0.135861994757E+02    0.63802E-05   -0.54722E-06  1544   0.307E-02    0.366E-02
DAV:  16    -0.135862121087E+02   -0.12633E-04   -0.20270E-06  1288   0.203E-02    0.274E-02
DAV:  17    -0.135862134660E+02   -0.13572E-05   -0.11572E-06  1256   0.145E-02    0.204E-02
DAV:  18    -0.135862311867E+02   -0.17721E-04   -0.36281E-06  1304   0.118E-02    0.157E-02
DAV:  19    -0.135862484292E+02   -0.17242E-04   -0.47149E-06  1208   0.108E-02    0.144E-02
DAV:  20    -0.135862406196E+02    0.78096E-05   -0.59584E-06  1496   0.104E-02    0.132E-02
DAV:  21    -0.135862682765E+02   -0.27657E-04   -0.30459E-06  1320   0.724E-03    0.124E-02
DAV:  22    -0.135862453480E+02    0.22928E-04   -0.20275E-05  1248   0.121E-02    0.109E-02
DAV:  23    -0.135862288355E+02    0.16513E-04   -0.23742E-05  1168   0.157E-02    0.919E-03
DAV:  24    -0.135862209198E+02    0.79157E-05   -0.55469E-06  1368   0.136E-02    0.639E-03
DAV:  25    -0.135862165894E+02    0.43304E-05   -0.14942E-06  1128   0.986E-03    0.441E-03
DAV:  26    -0.135862035764E+02    0.13013E-04   -0.14104E-06  1360   0.923E-03    0.231E-03
DAV:  27    -0.135861991147E+02    0.44617E-05   -0.13165E-06  1400   0.698E-03    0.107E-03
DAV:  28    -0.135862012541E+02   -0.21394E-05   -0.69653E-07  1376   0.559E-03    0.979E-04
DAV:  29    -0.135862020617E+02   -0.80754E-06   -0.15669E-06  1160   0.739E-03    0.982E-04
DAV:  30    -0.135862036065E+02   -0.15449E-05   -0.37042E-06  1184   0.123E-02    0.939E-04
DAV:  31    -0.135862042639E+02   -0.65735E-06   -0.57307E-07  1144   0.482E-03    0.932E-04
DAV:  32    -0.135861980774E+02    0.61865E-05   -0.28864E-06  1200   0.823E-03    0.926E-04
DAV:  33    -0.136027465229E+02   -0.16548E-01   -0.13143E-05  1504   0.131E-02    0.630E-01
DAV:  34    -0.135861227145E+02    0.16624E-01   -0.67720E+00  1248   0.641E-01    0.204E-02
DAV:  35    -0.135862997567E+02   -0.17704E-03   -0.76927E-05  1736   0.149E-01    0.250E-02
DAV:  36    -0.135862815603E+02    0.18196E-04   -0.48399E-06  1576   0.361E-02    0.837E-03
DAV:  37    -0.135862200236E+02    0.61537E-04   -0.18175E-06  1464   0.128E-02    0.383E-03
DAV:  38    -0.135862248423E+02   -0.48187E-05   -0.17096E-06  1504   0.967E-03    0.479E-03
DAV:  39    -0.135862615704E+02   -0.36728E-04   -0.11784E-05  1376   0.126E-02    0.403E-03
DAV:  40    -0.135862613259E+02    0.24446E-06   -0.11214E-05  1256   0.184E-02    0.279E-03
DAV:  41    -0.135862608075E+02    0.51844E-06   -0.23529E-05  1240   0.228E-02    0.230E-03
DAV:  42    -0.135862627158E+02   -0.19083E-05   -0.34558E-05  1216   0.195E-02    0.208E-03
DAV:  43    -0.135862359850E+02    0.26731E-04   -0.31515E-03  1392   0.258E-02    0.204E-03
DAV:  44    -0.135862395630E+02   -0.35780E-05   -0.11328E-05  1376   0.136E-02    0.181E-03
DAV:  45    -0.135862742086E+02   -0.34646E-04   -0.10382E-05  1376   0.133E-02    0.498E-03
DAV:  46    -0.135862512716E+02    0.22937E-04   -0.39277E-02  1184   0.196E-02    0.133E-03
DAV:  47    -0.135862571808E+02   -0.59092E-05   -0.25067E-06  1336   0.748E-03    0.119E-03
DAV:  48    -0.135862620977E+02   -0.49169E-05   -0.11224E-06  1136   0.605E-03    0.106E-03
DAV:  49    -0.152382949059E+02   -0.16520E+01   -0.11674E+01  1592   0.988E-03    0.758E+00
DAV:  50    -0.134509152665E+02    0.17874E+01   -0.12408E+02  1344   0.101E+01    0.872E-01
DAV:  51    -0.135498813237E+02   -0.98966E-01   -0.90159E-01  1936   0.261E+00    0.639E-01
DAV:  52    -0.135843420152E+02   -0.34461E-01   -0.30469E-01  1392   0.163E+00    0.363E-01
DAV:  53    -0.135861020764E+02   -0.17601E-02   -0.83650E-03  1616   0.439E-01    0.202E-01
DAV:  54    -0.135862717044E+02   -0.16963E-03   -0.47919E-04  1584   0.141E-01    0.153E-01
DAV:  55    -0.135862553952E+02    0.16309E-04   -0.33018E-05  1520   0.105E-01    0.116E-01
DAV:  56    -0.135862948712E+02   -0.39476E-04   -0.21822E-05  1616   0.891E-02    0.873E-02
DAV:  57    -0.135863954420E+02   -0.10057E-03   -0.13996E-05  1504   0.589E-02    0.670E-02
DAV:  58    -0.135864364405E+02   -0.40999E-04   -0.57510E-06  1464   0.264E-02    0.591E-02
DAV:  59    -0.135863881240E+02    0.48317E-04   -0.31457E-06  1536   0.307E-02    0.491E-02
DAV:  60    -0.135863497085E+02    0.38416E-04   -0.26993E-06  1528   0.237E-02    0.411E-02
DAV:  61    -0.135863010532E+02    0.48655E-04   -0.29448E-06  1584   0.259E-02    0.305E-02
DAV:  62    -0.135862747918E+02    0.26261E-04   -0.12253E-06  1440   0.151E-02    0.247E-02
DAV:  63    -0.135862350213E+02    0.39771E-04   -0.17126E-06  1520   0.205E-02    0.173E-02
DAV:  64    -0.135862059405E+02    0.29081E-04   -0.13438E-06  1472   0.196E-02    0.110E-02
DAV:  65    -0.135861765394E+02    0.29401E-04   -0.77886E-07  1328   0.131E-02    0.751E-03
DAV:  66    -0.135861598851E+02    0.16654E-04   -0.27214E-07  1256   0.685E-03    0.554E-03
DAV:  67    -0.135861630498E+02   -0.31646E-05   -0.54364E-07  1200   0.604E-03    0.463E-03
DAV:  68    -0.135861617253E+02    0.13244E-05   -0.46002E-07  1264   0.490E-03    0.424E-03
DAV:  69    -0.135861645683E+02   -0.28430E-05   -0.48458E-07  1256   0.516E-03    0.411E-03
DAV:  70    -0.135861645100E+02    0.58319E-07   -0.49006E-07  1144   0.537E-03
   2 F= -.13586165E+02 E0= -.13562693E+02  d E =0.311401E-04  mag=     0.9378
       N       E                     dE             d eps       ncg     rms          rms(c)
DAV:   1    -0.135861689774E+02   -0.44090E-05   -0.42657E-04  1344   0.192E-01    0.148E-02
DAV:   2    -0.135862110799E+02   -0.42103E-04   -0.14065E-05  1376   0.705E-02    0.114E-02
DAV:   3    -0.135861019962E+02    0.10908E-03   -0.76731E-06  1472   0.862E-02    0.118E-02
DAV:   4    -0.135862391437E+02   -0.13715E-03   -0.32337E-06  1360   0.445E-02    0.248E-03
DAV:   5    -0.135862068709E+02    0.32273E-04   -0.81144E-07  1288   0.910E-03    0.143E-03
DAV:   6    -0.135862239214E+02   -0.17050E-04   -0.95129E-07  1216   0.878E-03    0.107E-03
DAV:   7    -0.135862268890E+02   -0.29676E-05   -0.69568E-07  1176   0.786E-03    0.856E-04
DAV:   8    -0.135862264468E+02    0.44221E-06   -0.10187E-06  1232   0.723E-03    0.646E-04
DAV:   9    -0.135862281204E+02   -0.16736E-05   -0.89778E-07  1256   0.617E-03    0.354E-04
DAV:  10    -0.135862188569E+02    0.92635E-05   -0.28011E-06  1184   0.955E-03    0.210E-04
DAV:  11    -0.135862078737E+02    0.10983E-04   -0.67798E-06  1592   0.109E-02    0.763E-05
DAV:  12    -0.135861954742E+02    0.12400E-04   -0.10335E-06  1472   0.709E-03    0.658E-05
DAV:  13    -0.135861870548E+02    0.84194E-05   -0.11331E-06  1272   0.836E-03    0.546E-05
DAV:  14    -0.135861769104E+02    0.10144E-04   -0.23140E-06  1296   0.103E-02    0.284E-05
DAV:  15    -0.135861840269E+02   -0.71164E-05   -0.48927E-06  1432   0.108E-02    0.278E-05
DAV:  16    -0.172273745546E+02   -0.36412E+01   -0.29401E+01  1720   0.138E-02    0.172E+01
DAV:  17    -0.145778466996E+02    0.26495E+01   -0.54359E+02  1528   0.433E+01    0.127E+01
DAV:  18    -0.133314305467E+02    0.12464E+01   -0.91220E+02  1496   0.162E+02    0.832E-01
DAV:  19    -0.135659676550E+02   -0.23454E+00   -0.13603E+00  1536   0.385E+00    0.303E-01
DAV:  20    -0.135832039137E+02   -0.17236E-01   -0.25551E-02  1544   0.878E-01    0.130E-01
DAV:  21    -0.135856401644E+02   -0.24363E-02   -0.10947E-03  1360   0.223E-01    0.728E-02
DAV:  22    -0.135861231269E+02   -0.48296E-03   -0.88515E-05  1400   0.900E-02    0.566E-02
DAV:  23    -0.135861898643E+02   -0.66737E-04   -0.16693E-05  1296   0.463E-02    0.456E-02
DAV:  24    -0.135861468139E+02    0.43050E-04   -0.42241E-06  1328   0.207E-02    0.347E-02
DAV:  25    -0.135861394117E+02    0.74022E-05   -0.19559E-06  1360   0.128E-02    0.271E-02
DAV:  26    -0.135861055489E+02    0.33863E-04   -0.31822E-06  1344   0.139E-02    0.185E-02
DAV:  27    -0.135861076049E+02   -0.20560E-05   -0.19917E-06  1536   0.104E-02    0.125E-02
DAV:  28    -0.135860864658E+02    0.21139E-04   -0.38250E-07  1344   0.603E-03    0.902E-03
DAV:  29    -0.135860707785E+02    0.15687E-04   -0.77297E-07  1224   0.491E-03    0.731E-03
DAV:  30    -0.135860584023E+02    0.12376E-04   -0.66280E-07  1144   0.468E-03    0.610E-03
DAV:  31    -0.135860435617E+02    0.14841E-04   -0.40005E-06  1264   0.823E-03    0.509E-03
DAV:  32    -0.135860243088E+02    0.19253E-04   -0.34643E-06  1208   0.999E-03    0.463E-03
DAV:  33    -0.135860187686E+02    0.55402E-05   -0.22923E-06  1240   0.992E-03    0.460E-03
DAV:  34    -0.135860104888E+02    0.82797E-05   -0.14193E-06  1176   0.814E-03    0.461E-03
DAV:  35    -0.135860072266E+02    0.32623E-05   -0.77419E-07  1208   0.676E-03    0.461E-03
DAV:  36    -0.135860164851E+02   -0.92585E-05   -0.12694E-05  1152   0.143E-02    0.460E-03
DAV:  37    -0.135860240087E+02   -0.75237E-05   -0.34362E-05  1112   0.257E-02    0.460E-03
DAV:  38    -0.136032512296E+02   -0.17227E-01   -0.19660E-05  1112   0.146E-02    0.639E-01
DAV:  39    -0.135859260594E+02    0.17325E-01   -0.78036E+00  1368   0.807E-01    0.221E-02
DAV:  40    -0.135859869123E+02   -0.60853E-04   -0.70344E-05  1608   0.151E-01    0.128E-02
DAV:  41    -0.135860801435E+02   -0.93231E-04   -0.49502E-06  1448   0.313E-02    0.100E-02
DAV:  42    -0.135860465865E+02    0.33557E-04   -0.11081E-06  1344   0.122E-02    0.841E-03
DAV:  43    -0.135860300121E+02    0.16574E-04   -0.61805E-07  1216   0.950E-03    0.610E-03
DAV:  44    -0.135860524012E+02   -0.22389E-04   -0.92662E-07  1608   0.636E-03    0.566E-03
DAV:  45    -0.135860548734E+02   -0.24721E-05   -0.15170E-06  1168   0.582E-03    0.545E-03
DAV:  46    -0.135860520012E+02    0.28721E-05   -0.12314E-06  1136   0.731E-03    0.518E-03
DAV:  47    -0.135974547126E+02   -0.11403E-01   -0.50714E-06  1120   0.794E-03    0.424E-01
DAV:  48    -0.135859941431E+02    0.11461E-01   -0.48887E+00  1392   0.351E-01    0.112E-02
DAV:  49    -0.135860313893E+02   -0.37246E-04   -0.29332E-05  1592   0.950E-02    0.672E-03
DAV:  50    -0.135860324708E+02   -0.10815E-05   -0.11384E-06  1256   0.135E-02    0.670E-03
DAV:  51    -0.135860299076E+02    0.25632E-05   -0.11091E-06  1448   0.699E-03    0.583E-03
DAV:  52    -0.135860482956E+02   -0.18388E-04   -0.10908E-06  1272   0.637E-03    0.546E-03
DAV:  53    -0.135860622287E+02   -0.13933E-04   -0.52790E-07  1168   0.551E-03    0.526E-03
DAV:  54    -0.135860713062E+02   -0.90775E-05   -0.10647E-07  1104   0.342E-03    0.501E-03
DAV:  55    -0.135860728330E+02   -0.15268E-05   -0.22381E-07  1288   0.365E-03    0.483E-03
DAV:  56    -0.135860741884E+02   -0.13554E-05   -0.67520E-08  1128   0.228E-03    0.469E-03
DAV:  57    -0.135860750043E+02   -0.81584E-06   -0.27857E-07  1160   0.332E-03    0.462E-03
DAV:  58    -0.135860761359E+02   -0.11316E-05   -0.76359E-08  1112   0.280E-03    0.459E-03
DAV:  59    -0.135860776389E+02   -0.15031E-05   -0.11317E-07  1152   0.366E-03    0.456E-03
DAV:  60    -0.135860791905E+02   -0.15515E-05   -0.17287E-07  1080   0.352E-03    0.455E-03
DAV:  61    -0.135860813378E+02   -0.21473E-05   -0.33706E-07  1256   0.370E-03    0.454E-03
DAV:  62    -0.135861707879E+02   -0.89450E-04   -0.12554E-04  1600   0.207E-01    0.881E-02
DAV:  63    -0.135861834034E+02   -0.12616E-04   -0.14583E-05  1728   0.542E-02    0.729E-02
DAV:  64    -0.135862051280E+02   -0.21725E-04   -0.48442E-06  1576   0.306E-02    0.606E-02
DAV:  65    -0.135862495520E+02   -0.44424E-04   -0.80152E-06  1680   0.498E-02    0.389E-02
DAV:  66    -0.135862679599E+02   -0.18408E-04   -0.54743E-06  1552   0.256E-02    0.282E-02
DAV:  67    -0.135862556934E+02    0.12267E-04   -0.34360E-06  1304   0.173E-02    0.218E-02
DAV:  68    -0.135862504098E+02    0.52836E-05   -0.31286E-06  1360   0.170E-02    0.149E-02
DAV:  69    -0.135862408666E+02    0.95432E-05   -0.35918E-06  1656   0.189E-02    0.770E-03
DAV:  70    -0.135862138311E+02    0.27036E-04   -0.32962E-06  1424   0.125E-02    0.443E-03
DAV:  71    -0.135862017711E+02    0.12060E-04   -0.18809E-06  1584   0.967E-03    0.239E-03
DAV:  72    -0.135862104550E+02   -0.86838E-05   -0.15671E-06  1296   0.835E-03    0.116E-03
DAV:  73    -0.135862110224E+02   -0.56745E-06   -0.29572E-06  1344   0.839E-03    0.645E-04
DAV:  74    -0.135862140287E+02   -0.30062E-05   -0.20857E-06  1280   0.955E-03    0.521E-04
DAV:  75    -0.135862175759E+02   -0.35473E-05   -0.44860E-06  1248   0.113E-02    0.470E-04
DAV:  76    -0.327252736971E+02   -0.19139E+02   -0.15640E+02  1712   0.208E-02    0.226E+01
DAV:  77    -0.216046886816E+03   -0.18332E+03   -0.28461E+03  1848   0.871E+01    0.161E+01
DAV:  78    -0.131576137702E+02    0.20289E+03   -0.16670E+03  1512   0.114E+02    0.182E+00
DAV:  79    -0.134379591401E+02   -0.28035E+00   -0.33346E-01  1504   0.225E+00    0.604E-01
DAV:  80    -0.135780622481E+02   -0.14010E+00   -0.10032E+00  1544   0.186E+00    0.653E-01
DAV:  81    -0.135856358498E+02   -0.75736E-02   -0.37549E-02  1688   0.142E+00    0.218E-01
DAV:  82    -0.135855845045E+02    0.51345E-04   -0.23437E-03  1536   0.802E-01    0.292E-01
DAV:  83    -0.135858240343E+02   -0.23953E-03   -0.29103E-04  1584   0.314E-01    0.166E-01
DAV:  84    -0.135859630191E+02   -0.13898E-03   -0.90491E-05  1664   0.164E-01    0.106E-01
DAV:  85    -0.135860192540E+02   -0.56235E-04   -0.45373E-05  1608   0.123E-01    0.726E-02
DAV:  86    -0.135860512882E+02   -0.32034E-04   -0.19616E-05  1592   0.775E-02    0.640E-02
DAV:  87    -0.135860366368E+02    0.14651E-04   -0.29954E-06  1488   0.198E-02    0.618E-02
DAV:  88    -0.135860141695E+02    0.22467E-04   -0.11265E-06  1360   0.169E-02    0.571E-02
DAV:  89    -0.135860085407E+02    0.56288E-05   -0.17497E-06  1224   0.148E-02    0.543E-02
DAV:  90    -0.135859985083E+02    0.10032E-04   -0.17974E-06  1280   0.133E-02    0.530E-02
DAV:  91    -0.135859811141E+02    0.17394E-04   -0.13546E-06  1272   0.142E-02    0.523E-02
DAV:  92    -0.135859601551E+02    0.20959E-04   -0.94317E-06  1464   0.585E-02    0.378E-02
DAV:  93    -0.135859442296E+02    0.15925E-04   -0.22924E-06  1344   0.131E-02    0.380E-02
DAV:  94    -0.135859410347E+02    0.31949E-05   -0.96647E-07  1176   0.738E-03    0.378E-02
DAV:  95    -0.135859792558E+02   -0.38221E-04   -0.18140E-06  1360   0.834E-03    0.375E-02
DAV:  96    -0.135859941470E+02   -0.14891E-04   -0.10763E-06  1256   0.788E-03    0.367E-02
DAV:  97    -0.135860063662E+02   -0.12219E-04   -0.54490E-07  1272   0.771E-03    0.352E-02
DAV:  98    -0.135860103138E+02   -0.39476E-05   -0.78118E-07  1432   0.101E-02    0.318E-02
DAV:  99    -0.135860102010E+02    0.11284E-06   -0.17630E-06  1392   0.219E-02    0.241E-02
DAV: 100    -0.135860076243E+02    0.25767E-05   -0.42087E-06  1552   0.249E-02    0.168E-02
DAV: 101    -0.135859813402E+02    0.26284E-04   -0.43598E-06  1552   0.221E-02    0.115E-02
DAV: 102    -0.135859249338E+02    0.56406E-04   -0.19415E-06  1312   0.122E-02    0.101E-02
DAV: 103    -0.135858935492E+02    0.31385E-04   -0.31293E-06  1416   0.149E-02    0.856E-03
DAV: 104    -0.135858960439E+02   -0.24946E-05   -0.32160E-06  1232   0.138E-02    0.800E-03
DAV: 105    -0.135858859742E+02    0.10070E-04   -0.29335E-06  1200   0.118E-02    0.799E-03
DAV: 106    -0.135858983808E+02   -0.12407E-04   -0.17180E-06  1384   0.754E-03    0.802E-03
DAV: 107    -0.135859123554E+02   -0.13975E-04   -0.82755E-06  1256   0.139E-02    0.803E-03
DAV: 108    -0.135859242693E+02   -0.11914E-04   -0.12050E-05  1232   0.180E-02    0.805E-03
DAV: 109    -0.135859328002E+02   -0.85309E-05   -0.11130E-05  1216   0.889E-03    0.806E-03
DAV: 110    -0.139063975686E+02   -0.32046E+00   -0.18630E+00  1344   0.143E-02    0.272E+00
DAV: 111    -0.135859451707E+02    0.32045E+00   -0.27196E+01  1480   0.231E+00    0.851E-02
DAV: 112    -0.135858105689E+02    0.13460E-03   -0.11417E-03  1616   0.635E-01    0.877E-02
DAV: 113    -0.135859567923E+02   -0.14622E-03   -0.58686E-05  1520   0.151E-01    0.351E-02
DAV: 114    -0.135859588671E+02   -0.20748E-05   -0.13297E-05  1672   0.521E-02    0.161E-02
DAV: 115    -0.135859461589E+02    0.12708E-04   -0.29243E-06  1408   0.215E-02    0.120E-02
DAV: 116    -0.135859397132E+02    0.64457E-05   -0.14515E-06  1216   0.123E-02    0.104E-02
DAV: 117    -0.135859584079E+02   -0.18695E-04   -0.46540E-06  1408   0.119E-02    0.102E-02
DAV: 118    -0.135859585733E+02   -0.16534E-06   -0.40445E-06  1208   0.137E-02    0.924E-03
DAV: 119    -0.135859465632E+02    0.12010E-04   -0.77393E-07  1104   0.740E-03    0.858E-03
DAV: 120    -0.135859432405E+02    0.33227E-05   -0.53602E-07  1112   0.556E-03    0.850E-03
DAV: 121    -0.135859473596E+02   -0.41191E-05   -0.21242E-07  1128   0.415E-03    0.844E-03
DAV: 122    -0.135859400048E+02    0.73548E-05   -0.20832E-05  1456   0.790E-02    0.327E-02
DAV: 123    -0.135861014621E+02   -0.16146E-03   -0.74154E-06  1408   0.314E-02    0.308E-02
DAV: 124    -0.135861958940E+02   -0.94432E-04   -0.42632E-06  1392   0.314E-02    0.173E-02
DAV: 125    -0.135862066637E+02   -0.10770E-04   -0.22671E-06  1376   0.189E-02    0.100E-02
DAV: 126    -0.135862188360E+02   -0.12172E-04   -0.19926E-06  1512   0.191E-02    0.284E-03
DAV: 127    -0.135862321707E+02   -0.13335E-04   -0.20180E-06  1480   0.104E-02    0.165E-03
DAV: 128    -0.135862218256E+02    0.10345E-04   -0.35188E-06  1488   0.119E-02    0.156E-03
DAV: 129    -0.135862275894E+02   -0.57638E-05   -0.22326E-06  1248   0.995E-03    0.156E-03
DAV: 130    -0.135862385828E+02   -0.10993E-04   -0.22304E-06  1496   0.801E-03    0.151E-03
DAV: 131    -0.135862492948E+02   -0.10712E-04   -0.75470E-06  1392   0.134E-02    0.146E-03
DAV: 132    -0.135862575266E+02   -0.82318E-05   -0.10538E-05  1416   0.173E-02    0.146E-03
DAV: 133    -0.192342667852E+02   -0.56480E+01   -0.47912E+01  1240   0.175E-02    0.134E+01
DAV: 134    -0.136214469965E+02    0.56128E+01   -0.13244E+02  1408   0.133E+01    0.379E-01
DAV: 135    -0.135856072769E+02    0.35840E-01   -0.15059E-02  1728   0.267E+00    0.322E-01
DAV: 136    -0.135858129514E+02   -0.20567E-03   -0.36921E-04  1488   0.340E-01    0.202E-01
DAV: 137    -0.135856367112E+02    0.17624E-03   -0.22389E-04  1616   0.270E-01    0.929E-02
DAV: 138    -0.135857584719E+02   -0.12176E-03   -0.56795E-05  1624   0.995E-02    0.487E-02
DAV: 139    -0.135859031944E+02   -0.14472E-03   -0.74977E-06  1504   0.441E-02    0.333E-02
DAV: 140    -0.135859567817E+02   -0.53587E-04   -0.58643E-06  1656   0.391E-02    0.155E-02
DAV: 141    -0.135860219486E+02   -0.65167E-04   -0.29009E-06  1368   0.260E-02    0.641E-03
DAV: 142    -0.135860423324E+02   -0.20384E-04   -0.24243E-06  1392   0.146E-02    0.548E-03
DAV: 143    -0.135860589863E+02   -0.16654E-04   -0.32808E-06  1424   0.122E-02    0.539E-03
DAV: 144    -0.135860682364E+02   -0.92501E-05   -0.17759E-06  1224   0.988E-03    0.522E-03
DAV: 145    -0.135860706035E+02   -0.23671E-05   -0.12748E-06  1232   0.846E-03    0.506E-03
DAV: 146    -0.135860959824E+02   -0.25379E-04   -0.32803E-06  1472   0.901E-03    0.506E-03
DAV: 147    -0.135861027207E+02   -0.67383E-05   -0.42514E-06  1360   0.102E-02    0.507E-03
DAV: 148    -0.135861079105E+02   -0.51898E-05   -0.23972E-06  1176   0.811E-03    0.507E-03
DAV: 149    -0.135861083359E+02   -0.42536E-06   -0.30743E-06  1256   0.561E-03    0.506E-03
DAV: 150    -0.135861015922E+02    0.67436E-05   -0.25433E-06  1416   0.509E-03    0.505E-03
DAV: 151    -0.135861054698E+02   -0.38776E-05   -0.36327E-06  1184   0.822E-03    0.503E-03
DAV: 152    -0.135862223451E+02   -0.11688E-03   -0.73034E-06  1584   0.385E-02    0.174E-02
DAV: 153    -0.135861581848E+02    0.64160E-04   -0.30216E-06  1552   0.337E-02    0.376E-03
DAV: 154    -0.135862085995E+02   -0.50415E-04   -0.15054E-06  1400   0.148E-02    0.431E-03
DAV: 155    -0.135862401502E+02   -0.31551E-04   -0.11378E-06  1432   0.883E-03    0.390E-03
DAV: 156    -0.135862305166E+02    0.96336E-05   -0.32583E-06  1448   0.107E-02    0.203E-03
DAV: 157    -0.135862394544E+02   -0.89379E-05   -0.40674E-06  1384   0.110E-02    0.157E-03
DAV: 158    -0.135862441122E+02   -0.46577E-05   -0.28742E-06  1336   0.110E-02    0.157E-03
DAV: 159    -0.135862558958E+02   -0.11784E-04   -0.88697E-06  1272   0.133E-02    0.153E-03
DAV: 160    -0.135862656456E+02   -0.97498E-05   -0.14936E-05  1184   0.156E-02    0.151E-03
DAV: 161    -0.135862738850E+02   -0.82393E-05   -0.27658E-06  1264   0.937E-03    0.152E-03
DAV: 162    -0.135958393150E+02   -0.95654E-02   -0.56311E-06  1224   0.834E-03    0.394E-01
DAV: 163    -0.135861780201E+02    0.96613E-02   -0.50360E+00  1448   0.445E-01    0.155E-02
DAV: 164    -0.135862321392E+02   -0.54119E-04   -0.27853E-05  1664   0.960E-02    0.106E-02
DAV: 165    -0.135862807004E+02   -0.48561E-04   -0.43463E-06  1392   0.228E-02    0.434E-03
DAV: 166    -0.135863014776E+02   -0.20777E-04   -0.55021E-06  1488   0.111E-02    0.317E-03
DAV: 167    -0.135862979847E+02    0.34928E-05   -0.50439E-06  1312   0.130E-02    0.232E-03
DAV: 168    -0.135863109137E+02   -0.12929E-04   -0.65398E-06  1192   0.111E-02    0.163E-03
DAV: 169    -0.135863171878E+02   -0.62741E-05   -0.12845E-05  1216   0.140E-02    0.157E-03
DAV: 170    -0.135863157816E+02    0.14063E-05   -0.77215E-06  1224   0.101E-02    0.156E-03
DAV: 171    -0.135863161469E+02   -0.36531E-06   -0.88727E-07  1216   0.315E-03    0.155E-03
DAV: 172    -0.136465328611E+02   -0.60217E-01   -0.47399E-02  1136   0.174E-03    0.100E+00
DAV: 173    -0.135860653756E+02    0.60467E-01   -0.12096E+01  1432   0.803E-01    0.294E-02
DAV: 174    -0.135862198630E+02   -0.15449E-03   -0.13916E-04  1576   0.219E-01    0.257E-02
DAV: 175    -0.135862853535E+02   -0.65490E-04   -0.68090E-06  1632   0.484E-02    0.894E-03
DAV: 176    -0.135863013253E+02   -0.15972E-04   -0.17256E-06  1584   0.174E-02    0.349E-03
DAV: 177    -0.135862768583E+02    0.24467E-04   -0.10058E-06  1240   0.804E-03    0.492E-03
DAV: 178    -0.135862739521E+02    0.29063E-05   -0.17006E-06  1288   0.124E-02    0.204E-03
DAV: 179    -0.135862572492E+02    0.16703E-04   -0.20022E-06  1208   0.846E-03    0.198E-03
DAV: 180    -0.135862607445E+02   -0.34954E-05   -0.39233E-06  1320   0.734E-03    0.202E-03
DAV: 181    -0.135862618121E+02   -0.10675E-05   -0.50005E-06  1368   0.109E-02    0.190E-03
DAV: 182    -0.135862622426E+02   -0.43049E-06   -0.10650E-06  1320   0.672E-03    0.191E-03
DAV: 183    -0.135862677760E+02   -0.55334E-05   -0.10942E-06  1296   0.749E-03    0.188E-03
DAV: 184    -0.137436788216E+02   -0.15741E+00   -0.10003E+00  1264   0.890E-03    0.180E+00
DAV: 185    -0.135859256732E+02    0.15775E+00   -0.21111E+01  1680   0.179E+00    0.377E-02
DAV: 186    -0.135861360742E+02   -0.21040E-03   -0.53774E-04  1480   0.409E-01    0.544E-02
DAV: 187    -0.135861845368E+02   -0.48463E-04   -0.24241E-05  1728   0.937E-02    0.236E-02
DAV: 188    -0.135861783240E+02    0.62128E-05   -0.73207E-06  1720   0.419E-02    0.718E-03
DAV: 189    -0.135861857325E+02   -0.74086E-05   -0.16882E-06  1472   0.147E-02    0.357E-03
DAV: 190    -0.135861903864E+02   -0.46539E-05   -0.18709E-06  1280   0.779E-03    0.357E-03
DAV: 191    -0.135861817729E+02    0.86135E-05   -0.12659E-06  1240   0.639E-03    0.330E-03
DAV: 192    -0.135861786026E+02    0.31703E-05   -0.55453E-07  1224   0.454E-03    0.321E-03
DAV: 193    -0.135861795419E+02   -0.93929E-06   -0.16875E-07  1144   0.309E-03    0.313E-03
DAV: 194    -0.135861813269E+02   -0.17850E-05   -0.13405E-07  1104   0.307E-03    0.305E-03
DAV: 195    -0.135861806130E+02    0.71387E-06   -0.18401E-06  1296   0.832E-03    0.296E-03
DAV: 196    -0.135861810923E+02   -0.47927E-06   -0.25078E-06  1216   0.974E-03    0.295E-03
DAV: 197    -0.135861805851E+02    0.50715E-06   -0.36726E-07  1256   0.367E-03    0.292E-03
DAV: 198    -0.135861805234E+02    0.61749E-07   -0.29990E-07  1288   0.333E-03
   3 F= -.13586181E+02 E0= -.13562729E+02  d E =-.160134E-04  mag=     0.9411
       N       E                     dE             d eps       ncg     rms          rms(c)
DAV:   1    -0.135861829455E+02   -0.23604E-05   -0.13288E-04  1280   0.116E-01    0.112E-02
DAV:   2    -0.135863505836E+02   -0.16764E-03   -0.13746E-05  1608   0.706E-02    0.107E-02
DAV:   3    -0.135862700341E+02    0.80549E-04   -0.46760E-06  1696   0.675E-02    0.762E-03
DAV:   4    -0.135863031357E+02   -0.33102E-04   -0.24431E-06  1328   0.291E-02    0.228E-03
DAV:   5    -0.135862719567E+02    0.31179E-04   -0.16118E-06  1120   0.860E-03    0.153E-03
DAV:   6    -0.135862484468E+02    0.23510E-04   -0.54194E-07  1112   0.618E-03    0.122E-03
DAV:   7    -0.135862417237E+02    0.67230E-05   -0.35299E-07  1168   0.602E-03    0.995E-04
DAV:   8    -0.135862200780E+02    0.21646E-04   -0.59629E-07  1168   0.506E-03    0.541E-04
DAV:   9    -0.135862186222E+02    0.14558E-05   -0.90196E-07  1280   0.547E-03    0.271E-04
DAV:  10    -0.135862064614E+02    0.12161E-04   -0.26364E-06  1336   0.872E-03    0.124E-04
DAV:  11    -0.135862138649E+02   -0.74035E-05   -0.13050E-05  1600   0.167E-02    0.149E-04
DAV:  12    -0.135862249521E+02   -0.11087E-04   -0.11992E-05  1312   0.220E-02    0.829E-05
DAV:  13    -0.135862285770E+02   -0.36249E-05   -0.12468E-05  1280   0.243E-02    0.930E-05
DAV:  14    -0.135862405181E+02   -0.11941E-04   -0.19644E-05  1248   0.216E-02    0.234E-04
DAV:  15    -0.136815245518E+02   -0.95284E-01   -0.40106E-01  1600   0.156E-02    0.181E+00
DAV:  16    -0.135859492019E+02    0.95575E-01   -0.28346E+01  1216   0.274E+00    0.548E-02
DAV:  17    -0.135860235962E+02   -0.74394E-04   -0.59914E-04  1704   0.388E-01    0.284E-02
DAV:  18    -0.135859764252E+02    0.47171E-04   -0.28087E-05  1432   0.734E-02    0.158E-02
DAV:  19    -0.135862450862E+02   -0.26866E-03   -0.19268E-05  1408   0.277E-02    0.123E-02
DAV:  20    -0.135862079312E+02    0.37155E-04   -0.61079E-06  1344   0.160E-02    0.905E-03
DAV:  21    -0.135862087973E+02   -0.86610E-06   -0.27496E-06  1448   0.123E-02    0.722E-03
DAV:  22    -0.135862056073E+02    0.31900E-05   -0.70157E-06  1472   0.145E-02    0.589E-03
DAV:  23    -0.135862259561E+02   -0.20349E-04   -0.33692E-06  1232   0.144E-02    0.486E-03
DAV:  24    -0.135862176096E+02    0.83465E-05   -0.27658E-06  1168   0.115E-02    0.385E-03
DAV:  25    -0.135862196778E+02   -0.20682E-05   -0.47683E-07  1280   0.550E-03    0.341E-03
DAV:  26    -0.135862060745E+02    0.13603E-04   -0.53848E-07  1088   0.597E-03    0.264E-03
DAV:  27    -0.135862129281E+02   -0.68536E-05   -0.44828E-06  1352   0.832E-03    0.201E-03
DAV:  28    -0.135862256223E+02   -0.12694E-04   -0.85955E-06  1120   0.110E-02    0.161E-03
DAV:  29    -0.135862243628E+02    0.12594E-05   -0.38346E-07  1096   0.316E-03    0.145E-03
DAV:  30    -0.135862231492E+02    0.12136E-05   -0.61817E-08  1088   0.285E-03    0.128E-03
DAV:  31    -0.135866739812E+02   -0.45083E-03   -0.37353E-08  1336   0.258E-03    0.431E-02
DAV:  32    -0.135862320838E+02    0.44190E-03   -0.36754E-01  1376   0.403E-02    0.200E-04
DAV:  33    -0.135862235103E+02    0.85735E-05   -0.15478E-06  1200   0.133E-02    0.244E-03
DAV:  34    -0.135862349545E+02   -0.11444E-04   -0.30425E-06  1184   0.843E-03    0.180E-03
DAV:  35    -0.135862329746E+02    0.19798E-05   -0.26332E-06  1112   0.669E-03    0.166E-03
DAV:  36    -0.145036575745E+02   -0.91742E+00   -0.62785E+00  1312   0.496E-03    0.522E+00
DAV:  37    -0.135881187176E+02    0.91554E+00   -0.60896E+01  1488   0.479E+00    0.145E-01
DAV:  38    -0.135857758018E+02    0.23429E-02   -0.36959E-03  1616   0.107E+00    0.585E-02
DAV:  39    -0.135860931887E+02   -0.31739E-03   -0.10883E-04  1560   0.203E-01    0.151E-02
DAV:  40    -0.135860766125E+02    0.16576E-04   -0.19867E-05  1480   0.379E-02    0.107E-02
DAV:  41    -0.135861088210E+02   -0.32208E-04   -0.36983E-06  1576   0.216E-02    0.136E-02
DAV:  42    -0.135860992627E+02    0.95582E-05   -0.19812E-06  1320   0.167E-02    0.850E-03
DAV:  43    -0.135860937041E+02    0.55586E-05   -0.18607E-06  1328   0.145E-02    0.431E-03
DAV:  44    -0.135860913359E+02    0.23682E-05   -0.62627E-07  1224   0.819E-03    0.256E-03
DAV:  45    -0.135860937632E+02   -0.24272E-05   -0.74477E-07  1232   0.577E-03    0.211E-03
DAV:  46    -0.135860954536E+02   -0.16905E-05   -0.34467E-07  1184   0.457E-03    0.209E-03
DAV:  47    -0.135860904129E+02    0.50407E-05   -0.25363E-07  1096   0.524E-03    0.283E-03
DAV:  48    -0.135860889549E+02    0.14580E-05   -0.13638E-07  1040   0.347E-03    0.317E-03
DAV:  49    -0.135860868424E+02    0.21125E-05   -0.14319E-07  1056   0.340E-03    0.359E-03
DAV:  50    -0.135860863207E+02    0.52173E-06   -0.14805E-07  1040   0.337E-03    0.389E-03
DAV:  51    -0.135860860522E+02    0.26849E-06   -0.52543E-08  1008   0.202E-03    0.385E-03
DAV:  52    -0.135860903278E+02   -0.42756E-05   -0.13617E-07  1016   0.347E-03    0.379E-03
DAV:  53    -0.135860897056E+02    0.62226E-06   -0.90442E-08  1072   0.282E-03    0.397E-03
DAV:  54    -0.135860869284E+02    0.27772E-05   -0.32140E-07  1120   0.423E-03    0.416E-03
DAV:  55    -0.135860874236E+02   -0.49521E-06   -0.81004E-07  1184   0.714E-03    0.355E-03
DAV:  56    -0.135860859868E+02    0.14368E-05   -0.88602E-07  1160   0.801E-03    0.274E-03
DAV:  57    -0.135861210725E+02   -0.35086E-04   -0.67198E-06  1528   0.355E-02    0.152E-02
DAV:  58    -0.135861350074E+02   -0.13935E-04   -0.23557E-06  1376   0.143E-02    0.133E-02
DAV:  59    -0.135861433586E+02   -0.83512E-05   -0.39105E-06  1504   0.239E-02    0.514E-03
DAV:  60    -0.135861879696E+02   -0.44611E-04   -0.38419E-06  1448   0.138E-02    0.297E-03
DAV:  61    -0.135862023019E+02   -0.14332E-04   -0.35419E-06  1400   0.107E-02    0.315E-03
DAV:  62    -0.135862138338E+02   -0.11532E-04   -0.49094E-06  1344   0.139E-02    0.105E-03
DAV:  63    -0.135862230519E+02   -0.92181E-05   -0.52545E-06  1432   0.117E-02    0.965E-04
DAV:  64    -0.135862726088E+02   -0.49557E-04   -0.11118E-05  1256   0.111E-02    0.665E-03
DAV:  65    -0.135862447794E+02    0.27829E-04   -0.63164E-02  1208   0.227E-02    0.922E-04
DAV:  66    -0.135862584416E+02   -0.13662E-04   -0.44554E-06  1200   0.884E-03    0.628E-04
DAV:  67    -0.135862599499E+02   -0.15083E-05   -0.52752E-06  1112   0.685E-03    0.627E-04
DAV:  68    -0.135862594260E+02    0.52394E-06   -0.24971E-05  1144   0.126E-02    0.649E-04
DAV:  69    -0.135862596352E+02   -0.20923E-06   -0.71874E-06  1280   0.390E-03    0.625E-04
DAV:  70    -0.135862819606E+02   -0.22325E-04   -0.50392E-06  1168   0.634E-03    0.342E-03
DAV:  71    -0.135862606826E+02    0.21278E-04   -0.25546E-02  1120   0.815E-03    0.636E-04
DAV:  72    -0.135899462704E+02   -0.36856E-02   -0.39933E-05  1328   0.588E-03    0.240E-01
DAV:  73    -0.135861839461E+02    0.37623E-02   -0.28608E+00  1384   0.312E-01    0.723E-03
DAV:  74    -0.135862227301E+02   -0.38784E-04   -0.13445E-05  1544   0.542E-02    0.479E-03
DAV:  75    -0.135862556126E+02   -0.32883E-04   -0.73084E-07  1304   0.111E-02    0.226E-03
DAV:  76    -0.135862331369E+02    0.22476E-04   -0.18142E-06  1384   0.604E-03    0.131E-03
DAV:  77    -0.135862600492E+02   -0.26912E-04   -0.63632E-06  1448   0.241E-02    0.108E-02
DAV:  78    -0.135862365609E+02    0.23488E-04   -0.95466E-07  1392   0.748E-03    0.867E-03
DAV:  79    -0.135862165490E+02    0.20012E-04   -0.99532E-07  1224   0.741E-03    0.607E-03
DAV:  80    -0.135862091583E+02    0.73907E-05   -0.96057E-07  1336   0.973E-03    0.269E-03
DAV:  81    -0.135862126149E+02   -0.34566E-05   -0.67735E-07  1176   0.633E-03    0.108E-03
DAV:  82    -0.135862790474E+02   -0.66432E-04   -0.17355E-06  1216   0.530E-03    0.128E-03
DAV:  83    -0.135862758037E+02    0.32437E-05   -0.11854E-07  1200   0.523E-03    0.114E-03
DAV:  84    -0.135862723927E+02    0.34110E-05   -0.70570E-08  1248   0.217E-03    0.103E-03
DAV:  85    -0.135862690147E+02    0.33780E-05   -0.59366E-08  1136   0.292E-03    0.600E-04
DAV:  86    -0.135862677059E+02    0.13088E-05   -0.53523E-08  1008   0.264E-03    0.542E-04
DAV:  87    -0.137955115598E+02   -0.20924E+00   -0.11121E+00  1096   0.304E-03    0.249E+00
DAV:  88    -0.135859306277E+02    0.20958E+00   -0.32630E+01  1344   0.282E+00    0.697E-02
DAV:  89    -0.135859501329E+02   -0.19505E-04   -0.93570E-04  1568   0.570E-01    0.829E-02
DAV:  90    -0.135860420116E+02   -0.91879E-04   -0.46630E-05  1624   0.138E-01    0.301E-02
DAV:  91    -0.135860449312E+02   -0.29196E-05   -0.14230E-05  1576   0.569E-02    0.671E-03
DAV:  92    -0.135860702324E+02   -0.25301E-04   -0.75256E-06  1312   0.187E-02    0.587E-03
DAV:  93    -0.135860811697E+02   -0.10937E-04   -0.22019E-06  1304   0.121E-02    0.543E-03
DAV:  94    -0.135860900357E+02   -0.88661E-05   -0.17951E-06  1272   0.965E-03    0.463E-03
DAV:  95    -0.135860972411E+02   -0.72054E-05   -0.58900E-06  1216   0.117E-02    0.336E-03
DAV:  96    -0.135860966631E+02    0.57799E-06   -0.31826E-07  1304   0.448E-03    0.307E-03
DAV:  97    -0.135860973238E+02   -0.66062E-06   -0.28129E-07  1128   0.439E-03    0.305E-03
DAV:  98    -0.135860978571E+02   -0.53331E-06   -0.24484E-07  1144   0.377E-03    0.304E-03
DAV:  99    -0.135860998194E+02   -0.19624E-05   -0.68469E-07  1136   0.408E-03    0.303E-03
DAV: 100    -0.135861001833E+02   -0.36386E-06   -0.12066E-06  1120   0.524E-03    0.301E-03
DAV: 101    -0.135861033072E+02   -0.31239E-05   -0.11966E-06  1152   0.564E-03    0.300E-03
DAV: 102    -0.135861046299E+02   -0.13228E-05   -0.88289E-07  1216   0.517E-03    0.295E-03
DAV: 103    -0.135861044343E+02    0.19568E-06   -0.20874E-07  1168   0.214E-03    0.293E-03
DAV: 104    -0.135861066751E+02   -0.22409E-05   -0.55569E-07  1112   0.361E-03    0.290E-03
DAV: 105    -0.135861124318E+02   -0.57566E-05   -0.48690E-07  1096   0.354E-03    0.278E-03
DAV: 106    -0.135861228258E+02   -0.10394E-04   -0.24089E-07  1112   0.261E-03    0.259E-03
DAV: 107    -0.135862384215E+02   -0.11560E-03   -0.73097E-07  1264   0.570E-03    0.146E-03
DAV: 108    -0.135862382520E+02    0.16953E-06   -0.43563E-07  1144   0.425E-03    0.146E-03
DAV: 109    -0.135862510081E+02   -0.12756E-04   -0.22732E-06  1304   0.685E-03    0.140E-03
DAV: 110    -0.135862292387E+02    0.21769E-04   -0.35553E-06  1168   0.781E-03    0.137E-03
DAV: 111    -0.135862286908E+02    0.54792E-06   -0.41648E-07  1088   0.344E-03    0.133E-03
DAV: 112    -0.135862031324E+02    0.25558E-04   -0.67359E-06  1480   0.192E-02    0.576E-03
DAV: 113    -0.135862164203E+02   -0.13288E-04   -0.46026E-06  1312   0.195E-02    0.110E-03
DAV: 114    -0.135862268789E+02   -0.10459E-04   -0.24990E-06  1288   0.961E-03    0.870E-04
DAV: 115    -0.135862276717E+02   -0.79276E-06   -0.28621E-06  1176   0.851E-03    0.119E-03
DAV: 116    -0.135862072312E+02    0.20440E-04   -0.11750E-06  1224   0.566E-03    0.121E-03
DAV: 117    -0.135862473933E+02   -0.40162E-04   -0.37407E-06  1504   0.932E-03    0.175E-03
DAV: 118    -0.135862364026E+02    0.10991E-04   -0.70287E-07  1248   0.587E-03    0.672E-04
DAV: 119    -0.135862366568E+02   -0.25424E-06   -0.10413E-06  1448   0.614E-03    0.925E-04
DAV: 120    -0.135862592180E+02   -0.22561E-04   -0.41121E-06  1528   0.843E-03    0.620E-04
DAV: 121    -0.135862609331E+02   -0.17151E-05   -0.22455E-05  1272   0.155E-02    0.498E-04
DAV: 122    -0.135862559943E+02    0.49388E-05   -0.59048E-05  1240   0.214E-02    0.446E-04
DAV: 123    -0.135862462266E+02    0.97677E-05   -0.28949E-06  1288   0.674E-03    0.434E-04
DAV: 124    -0.135862524534E+02   -0.62269E-05   -0.31757E-06  1136   0.726E-03    0.394E-04
DAV: 125    -0.135862570813E+02   -0.46279E-05   -0.80200E-06  1112   0.107E-02    0.404E-04
DAV: 126    -0.135862560814E+02    0.99996E-06   -0.32105E-06  1168   0.859E-03    0.384E-04
DAV: 127    -0.135862563211E+02   -0.23974E-06   -0.54525E-06  1208   0.996E-03    0.382E-04
DAV: 128    -0.146278584585E+02   -0.10416E+01   -0.73490E+00  1320   0.993E-03    0.575E+00
DAV: 129    -0.135883959540E+02    0.10395E+01   -0.87115E+01  1240   0.954E+00    0.140E-01
DAV: 130    -0.135858450997E+02    0.25509E-02   -0.38693E-03  1728   0.117E+00    0.151E-01
DAV: 131    -0.135860786993E+02   -0.23360E-03   -0.14386E-04  1576   0.236E-01    0.614E-02
DAV: 132    -0.135861087439E+02   -0.30045E-04   -0.28794E-05  1664   0.762E-02    0.305E-02
DAV: 133    -0.135861226217E+02   -0.13878E-04   -0.54919E-06  1568   0.296E-02    0.212E-02
DAV: 134    -0.135861362076E+02   -0.13586E-04   -0.39366E-06  1528   0.272E-02    0.110E-02
DAV: 135    -0.135861452325E+02   -0.90249E-05   -0.21311E-06  1480   0.181E-02    0.493E-03
DAV: 136    -0.135861848738E+02   -0.39641E-04   -0.28970E-06  1384   0.148E-02    0.173E-03
DAV: 137    -0.135861986601E+02   -0.13786E-04   -0.26961E-06  1464   0.112E-02    0.130E-03
DAV: 138    -0.135862169099E+02   -0.18250E-04   -0.45301E-06  1608   0.109E-02    0.781E-04
DAV: 139    -0.135862223578E+02   -0.54480E-05   -0.81028E-06  1336   0.147E-02    0.775E-04
DAV: 140    -0.135862315517E+02   -0.91939E-05   -0.54230E-06  1392   0.129E-02    0.737E-04
DAV: 141    -0.135862594682E+02   -0.27916E-04   -0.50742E-06  1320   0.861E-03    0.706E-04
DAV: 142    -0.135862610132E+02   -0.15451E-05   -0.37206E-06  1264   0.634E-03    0.714E-04
DAV: 143    -0.136046406053E+02   -0.18380E-01   -0.61494E-06  1208   0.749E-03    0.551E-01
DAV: 144    -0.135860924587E+02    0.18548E-01   -0.67946E+00  1400   0.556E-01    0.234E-02
DAV: 145    -0.135861989646E+02   -0.10651E-03   -0.45258E-05  1728   0.136E-01    0.195E-02
DAV: 146    -0.135861997834E+02   -0.81874E-06   -0.37692E-06  1632   0.352E-02    0.743E-03
DAV: 147    -0.135862084240E+02   -0.86406E-05   -0.48188E-06  1568   0.157E-02    0.256E-03
DAV: 148    -0.135862064872E+02    0.19367E-05   -0.17222E-06  1296   0.992E-03    0.107E-03
DAV: 149    -0.135862071069E+02   -0.61966E-06   -0.34770E-07  1104   0.507E-03    0.788E-04
DAV: 150    -0.135862048367E+02    0.22702E-05   -0.20047E-06  1480   0.703E-03    0.640E-04
DAV: 151    -0.135862076692E+02   -0.28326E-05   -0.37913E-06  1288   0.822E-03    0.594E-04
DAV: 152    -0.135862084315E+02   -0.76227E-06   -0.57068E-06  1272   0.130E-02    0.586E-04
DAV: 153    -0.135862098388E+02   -0.14073E-05   -0.44562E-06  1208   0.117E-02    0.584E-04
DAV: 154    -0.135862097066E+02    0.13218E-06   -0.23122E-06  1464   0.951E-03    0.586E-04
DAV: 155    -0.184930302696E+02   -0.49068E+01   -0.41109E+01  1272   0.110E-02    0.152E+01
DAV: 156    -0.136238064520E+02    0.48692E+01   -0.27980E+02  1312   0.303E+01    0.493E-01
DAV: 157    -0.135846332263E+02    0.39173E-01   -0.16675E-02  1784   0.286E+00    0.268E-01
DAV: 158    -0.135853830890E+02   -0.74986E-03   -0.39187E-04  1576   0.332E-01    0.167E-01
DAV: 159    -0.135856373843E+02   -0.25430E-03   -0.12178E-04  1432   0.186E-01    0.945E-02
DAV: 160    -0.135857407766E+02   -0.10339E-03   -0.62487E-05  1568   0.117E-01    0.451E-02
DAV: 161    -0.135857549293E+02   -0.14153E-04   -0.10066E-05  1568   0.384E-02    0.291E-02
DAV: 162    -0.135857796084E+02   -0.24679E-04   -0.14569E-06  1304   0.120E-02    0.264E-02
DAV: 163    -0.135857922025E+02   -0.12594E-04   -0.14170E-06  1520   0.182E-02    0.195E-02
DAV: 164    -0.135858010836E+02   -0.88811E-05   -0.15514E-06  1416   0.128E-02    0.159E-02
DAV: 165    -0.135858036790E+02   -0.25954E-05   -0.19539E-06  1376   0.176E-02    0.112E-02
DAV: 166    -0.135858115203E+02   -0.78413E-05   -0.14130E-06  1416   0.124E-02    0.929E-03
DAV: 167    -0.135857962506E+02    0.15270E-04   -0.34301E-06  1424   0.118E-02    0.881E-03
DAV: 168    -0.135857825935E+02    0.13657E-04   -0.26485E-06  1280   0.119E-02    0.863E-03
DAV: 169    -0.135857825451E+02    0.48376E-07   -0.24069E-06  1232   0.122E-02    0.852E-03
DAV: 170    -0.135857813480E+02    0.11971E-05   -0.16955E-06  1232   0.954E-03    0.849E-03
DAV: 171    -0.135857831662E+02   -0.18182E-05   -0.59310E-07  1160   0.652E-03    0.847E-03
DAV: 172    -0.135859672806E+02   -0.18411E-03   -0.77163E-06  1392   0.269E-02    0.111E-02
DAV: 173    -0.135858953357E+02    0.71945E-04   -0.19714E-06  1352   0.142E-02    0.136E-02
DAV: 174    -0.135859721768E+02   -0.76841E-04   -0.13885E-06  1472   0.122E-02    0.110E-02
DAV: 175    -0.135859950193E+02   -0.22842E-04   -0.59125E-07  1200   0.955E-03    0.876E-03
DAV: 176    -0.135859907772E+02    0.42421E-05   -0.76258E-07  1408   0.864E-03    0.742E-03
DAV: 177    -0.135859836072E+02    0.71700E-05   -0.38899E-06  1304   0.125E-02    0.687E-03
DAV: 178    -0.135859904499E+02   -0.68427E-05   -0.31357E-06  1600   0.110E-02    0.686E-03
DAV: 179    -0.135859941064E+02   -0.36564E-05   -0.30176E-06  1240   0.909E-03    0.689E-03
DAV: 180    -0.135859987148E+02   -0.46084E-05   -0.23910E-06  1256   0.944E-03    0.687E-03
DAV: 181    -0.135859993424E+02   -0.62758E-06   -0.95032E-07  1256   0.653E-03    0.686E-03
DAV: 182    -0.135859962868E+02    0.30556E-05   -0.93299E-07  1168   0.690E-03    0.684E-03
DAV: 183    -0.135859947601E+02    0.15267E-05   -0.86375E-07  1248   0.624E-03    0.682E-03
DAV: 184    -0.135859944349E+02    0.32515E-06   -0.56055E-07  1144   0.592E-03    0.680E-03
DAV: 185    -0.135859973610E+02   -0.29261E-05   -0.69103E-07  1144   0.604E-03    0.672E-03
DAV: 186    -0.135860049667E+02   -0.76056E-05   -0.10434E-06  1128   0.620E-03    0.653E-03
DAV: 187    -0.135862473582E+02   -0.24239E-03   -0.10256E-05  1520   0.169E-02    0.118E-03
DAV: 188    -0.135862381545E+02    0.92037E-05   -0.16747E-06  1288   0.848E-03    0.133E-03
DAV: 189    -0.135862173860E+02    0.20768E-04   -0.12119E-06  1232   0.688E-03    0.116E-03
DAV: 190    -0.135862063752E+02    0.11011E-04   -0.92330E-07  1440   0.617E-03    0.918E-04
DAV: 191    -0.135862201138E+02   -0.13739E-04   -0.55894E-06  1584   0.100E-02    0.851E-04
DAV: 192    -0.135862291933E+02   -0.90795E-05   -0.42139E-06  1248   0.102E-02    0.794E-04
DAV: 193    -0.135862323320E+02   -0.31387E-05   -0.12983E-05  1304   0.101E-02    0.788E-04
DAV: 194    -0.135862355928E+02   -0.32608E-05   -0.32926E-05  1240   0.141E-02    0.776E-04
DAV: 195    -0.135862385140E+02   -0.29212E-05   -0.43160E-06  1264   0.781E-03    0.644E-04
DAV: 196    -0.135930101387E+02   -0.67716E-02   -0.12257E-03  1192   0.837E-03    0.352E-01
DAV: 197    -0.135860812923E+02    0.69288E-02   -0.43073E+00  1608   0.379E-01    0.712E-03
DAV: 198    -0.135861525792E+02   -0.71287E-04   -0.19317E-05  1576   0.751E-02    0.547E-03
DAV: 199    -0.135861852518E+02   -0.32673E-04   -0.27542E-06  1440   0.149E-02    0.436E-03
DAV: 200    -0.135861933797E+02   -0.81279E-05   -0.13198E-06  1344   0.876E-03    0.403E-03
DAV: 201    -0.135861921969E+02    0.11827E-05   -0.87096E-07  1120   0.698E-03    0.271E-03
DAV: 202    -0.135861892094E+02    0.29875E-05   -0.48965E-07  1192   0.534E-03    0.215E-03
DAV: 203    -0.135861895276E+02   -0.31817E-06   -0.45023E-07  1144   0.497E-03    0.177E-03
DAV: 204    -0.135861909173E+02   -0.13897E-05   -0.23688E-07  1088   0.341E-03    0.154E-03
DAV: 205    -0.135861954138E+02   -0.44965E-05   -0.43194E-07  1096   0.455E-03    0.105E-03
DAV: 206    -0.135862010542E+02   -0.56404E-05   -0.51232E-07  1152   0.534E-03    0.869E-04
DAV: 207    -0.135862030321E+02   -0.19779E-05   -0.26415E-07  1072   0.424E-03    0.778E-04
DAV: 208    -0.135862016833E+02    0.13487E-05   -0.35713E-07  1248   0.479E-03    0.746E-04
DAV: 209    -0.135862014182E+02    0.26519E-06   -0.18919E-06  1128   0.528E-03    0.742E-04
DAV: 210    -0.135862041425E+02   -0.27244E-05   -0.10316E-05  1128   0.108E-02    0.742E-04
DAV: 211    -0.135862045266E+02   -0.38404E-06   -0.58857E-07  1152   0.358E-03    0.743E-04
DAV: 212    -0.135862073213E+02   -0.27947E-05   -0.19384E-06  1200   0.659E-03    0.742E-04
DAV: 213    -0.135914154010E+02   -0.52081E-02   -0.43662E-03  1232   0.858E-03    0.270E-01
DAV: 214    -0.135861615976E+02    0.52538E-02   -0.28096E+00  1440   0.298E-01    0.864E-03
DAV: 215    -0.135861782948E+02   -0.16697E-04   -0.10792E-05  1624   0.612E-02    0.716E-03
DAV: 216    -0.135862228882E+02   -0.44593E-04   -0.43831E-06  1520   0.187E-02    0.214E-03
DAV: 217    -0.135862388123E+02   -0.15924E-04   -0.74401E-06  1384   0.119E-02    0.164E-03
DAV: 218    -0.135862729136E+02   -0.34101E-04   -0.95670E-06  1256   0.138E-02    0.118E-03
DAV: 219    -0.135862491664E+02    0.23747E-04   -0.14424E-05  1232   0.174E-02    0.939E-04
DAV: 220    -0.135862783507E+02   -0.29184E-04   -0.11072E-05  1256   0.137E-02    0.815E-04
DAV: 221    -0.135862865972E+02   -0.82465E-05   -0.16345E-05  1208   0.156E-02    0.775E-04
DAV: 222    -0.135865812310E+02   -0.29463E-03   -0.10681E-05  1416   0.122E-02    0.341E-02
DAV: 223    -0.135862563889E+02    0.32484E-03   -0.54644E-01  1216   0.726E-02    0.130E-03
DAV: 224    -0.136284945253E+02   -0.42238E-01   -0.24032E-01  1392   0.151E-02    0.830E-01
DAV: 225    -0.135859931390E+02    0.42501E-01   -0.10398E+01  1456   0.937E-01    0.234E-02
DAV: 226    -0.135861784857E+02   -0.18535E-03   -0.15257E-04  1600   0.191E-01    0.206E-02
DAV: 227    -0.135862165915E+02   -0.38106E-04   -0.57111E-06  1520   0.432E-02    0.661E-03
DAV: 228    -0.135862110424E+02    0.55490E-05   -0.46572E-06  1424   0.160E-02    0.321E-03
DAV: 229    -0.135862091229E+02    0.19196E-05   -0.25153E-06  1272   0.920E-03    0.173E-03
DAV: 230    -0.135862094116E+02   -0.28873E-06   -0.29106E-07  1312   0.337E-03    0.157E-03
DAV: 231    -0.135862096592E+02   -0.24759E-06   -0.53239E-08  1096   0.204E-03    0.140E-03
DAV: 232    -0.135862108512E+02   -0.11921E-05   -0.37770E-07  1168   0.336E-03    0.132E-03
DAV: 233    -0.135862125028E+02   -0.16516E-05   -0.39428E-07  1128   0.330E-03    0.133E-03
DAV: 234    -0.135862141297E+02   -0.16269E-05   -0.88579E-08  1192   0.184E-03    0.133E-03
DAV: 235    -0.135862147593E+02   -0.62958E-06   -0.22071E-07  1128   0.305E-03    0.135E-03
DAV: 236    -0.135862145631E+02    0.19619E-06   -0.81240E-08  1152   0.166E-03    0.135E-03
DAV: 237    -0.135862141885E+02    0.37461E-06   -0.33220E-07  1160   0.303E-03    0.137E-03
DAV: 238    -0.135862147857E+02   -0.59714E-06   -0.11002E-07  1184   0.232E-03    0.136E-03
DAV: 239    -0.135862151133E+02   -0.32764E-06   -0.60962E-07  1200   0.336E-03    0.135E-03
DAV: 240    -0.135862151053E+02    0.79879E-08   -0.60352E-07  1208   0.352E-03
   4 F= -.13586215E+02 E0= -.13562766E+02  d E =-.345819E-04  mag=     0.9401
       N       E                     dE             d eps       ncg     rms          rms(c)
DAV:   1    -0.135862157605E+02   -0.64720E-06   -0.10637E-04  1352   0.929E-02    0.577E-03
DAV:   2    -0.135863484604E+02   -0.13270E-03   -0.65097E-06  1280   0.350E-02    0.431E-03
DAV:   3    -0.135863067446E+02    0.41716E-04   -0.15034E-06  1544   0.342E-02    0.448E-03
DAV:   4    -0.135863319458E+02   -0.25201E-04   -0.18051E-06  1424   0.222E-02    0.799E-04
DAV:   5    -0.135862821298E+02    0.49816E-04   -0.16780E-06  1168   0.895E-03    0.546E-04
DAV:   6    -0.135862547247E+02    0.27405E-04   -0.11161E-06  1272   0.555E-03    0.375E-04
DAV:   7    -0.135862257818E+02    0.28943E-04   -0.20033E-06  1200   0.721E-03    0.304E-04
DAV:   8    -0.135862065594E+02    0.19222E-04   -0.33106E-06  1296   0.100E-02    0.246E-04
DAV:   9    -0.135862051700E+02    0.13895E-05   -0.39678E-06  1216   0.120E-02    0.117E-04
DAV:  10    -0.135862090941E+02   -0.39242E-05   -0.24564E-06  1536   0.913E-03    0.840E-05
DAV:  11    -0.135862031544E+02    0.59397E-05   -0.12035E-06  1376   0.877E-03    0.546E-05
DAV:  12    -0.135862029013E+02    0.25315E-06   -0.18734E-06  1224   0.773E-03    0.267E-05
DAV:  13    -0.285578156686E+02   -0.14972E+02   -0.13066E+02  1512   0.117E-02    0.199E+01
DAV:  14    -0.136566130209E+02    0.14901E+02   -0.37333E+02  1320   0.350E+01    0.439E-01
DAV:  15    -0.135896790504E+02    0.66934E-01   -0.27704E-02  1632   0.336E+00    0.356E-01
DAV:  16    -0.135855997748E+02    0.40793E-02   -0.18303E-03  1672   0.621E-01    0.147E-01
DAV:  17    -0.135849970959E+02    0.60268E-03   -0.36308E-04  1480   0.178E-01    0.104E-01
DAV:  18    -0.135857392283E+02   -0.74213E-03   -0.43626E-05  1440   0.742E-02    0.778E-02
DAV:  19    -0.135859645872E+02   -0.22536E-03   -0.22537E-05  1480   0.454E-02    0.627E-02
DAV:  20    -0.135860345894E+02   -0.70002E-04   -0.11348E-05  1448   0.332E-02    0.480E-02
DAV:  21    -0.135861191427E+02   -0.84553E-04   -0.47088E-06  1464   0.267E-02    0.364E-02
DAV:  22    -0.135861454786E+02   -0.26336E-04   -0.49606E-06  1496   0.170E-02    0.301E-02
DAV:  23    -0.135861431632E+02    0.23155E-05   -0.39592E-06  1520   0.208E-02    0.236E-02
DAV:  24    -0.135861430212E+02    0.14196E-06   -0.49894E-06  1416   0.183E-02    0.189E-02
DAV:  25    -0.135861587310E+02   -0.15710E-04   -0.39745E-06  1432   0.123E-02    0.163E-02
DAV:  26    -0.135861673624E+02   -0.86314E-05   -0.15601E-06  1328   0.963E-03    0.126E-02
DAV:  27    -0.135861843110E+02   -0.16949E-04   -0.33795E-07  1160   0.645E-03    0.104E-02
DAV:  28    -0.135862017457E+02   -0.17435E-04   -0.11563E-06  1136   0.860E-03    0.729E-03
DAV:  29    -0.135862090591E+02   -0.73133E-05   -0.58664E-06  1328   0.129E-02    0.473E-03
DAV:  30    -0.135862246469E+02   -0.15588E-04   -0.31323E-06  1312   0.101E-02    0.362E-03
DAV:  31    -0.135862535035E+02   -0.28857E-04   -0.24450E-05  1360   0.120E-02    0.265E-03
DAV:  32    -0.135862573238E+02   -0.38203E-05   -0.60435E-05  1368   0.191E-02    0.223E-03
DAV:  33    -0.135862571653E+02    0.15844E-06   -0.41016E-06  1360   0.332E-03    0.205E-03
DAV:  34    -0.135862575932E+02   -0.42785E-06   -0.43799E-06  1304   0.559E-03    0.163E-03
DAV:  35    -0.135862607931E+02   -0.31999E-05   -0.65143E-05  1352   0.151E-02    0.919E-04
DAV:  36    -0.135862457764E+02    0.15017E-04   -0.29387E-04  1208   0.362E-02    0.918E-04
DAV:  37    -0.135862467475E+02   -0.97114E-06   -0.19498E-05  1256   0.112E-02    0.776E-04
DAV:  38    -0.202293366060E+02   -0.66431E+01   -0.58457E+01  1680   0.194E-02    0.170E+01
DAV:  39    -0.136153889555E+02    0.66139E+01   -0.28850E+02  1232   0.358E+01    0.329E-01
DAV:  40    -0.135842668868E+02    0.31122E-01   -0.14112E-02  1664   0.254E+00    0.311E-01
DAV:  41    -0.135853738201E+02   -0.11069E-02   -0.48901E-04  1608   0.423E-01    0.128E-01
DAV:  42    -0.135858633739E+02   -0.48955E-03   -0.91593E-05  1464   0.117E-01    0.878E-02
DAV:  43    -0.135860583590E+02   -0.19499E-03   -0.15639E-05  1616   0.591E-02    0.628E-02
DAV:  44    -0.135860846823E+02   -0.26323E-04   -0.65074E-06  1488   0.393E-02    0.436E-02
DAV:  45    -0.135861164759E+02   -0.31794E-04   -0.55128E-06  1544   0.363E-02    0.259E-02
DAV:  46    -0.135861260413E+02   -0.95654E-05   -0.62147E-06  1480   0.252E-02    0.155E-02
DAV:  47    -0.135861341239E+02   -0.80826E-05   -0.25267E-06  1424   0.148E-02    0.116E-02
DAV:  48    -0.135861477853E+02   -0.13661E-04   -0.78812E-07  1336   0.996E-03    0.833E-03
DAV:  49    -0.135861529619E+02   -0.51766E-05   -0.18746E-06  1392   0.101E-02    0.638E-03
DAV:  50    -0.135861531169E+02   -0.15498E-06   -0.86026E-07  1216   0.759E-03    0.475E-03
DAV:  51    -0.135861600830E+02   -0.69661E-05   -0.30478E-06  1248   0.742E-03    0.400E-03
DAV:  52    -0.135861587691E+02    0.13139E-05   -0.43990E-06  1152   0.108E-02    0.349E-03
DAV:  53    -0.135861703687E+02   -0.11600E-04   -0.62875E-06  1352   0.116E-02    0.343E-03
DAV:  54    -0.135861921926E+02   -0.21824E-04   -0.10319E-05  1216   0.799E-03    0.341E-03
DAV:  55    -0.135861989372E+02   -0.67446E-05   -0.56548E-05  1280   0.174E-02    0.340E-03
DAV:  56    -0.135861983509E+02    0.58627E-06   -0.34181E-06  1272   0.311E-03    0.340E-03
DAV:  57    -0.135861950157E+02    0.33352E-05   -0.13399E-06  1448   0.996E-03    0.481E-03
DAV:  58    -0.135861850281E+02    0.99876E-05   -0.45856E-07  1160   0.404E-03    0.440E-03
DAV:  59    -0.135861817789E+02    0.32492E-05   -0.19393E-07  1168   0.283E-03    0.390E-03
DAV:  60    -0.135861693930E+02    0.12386E-04   -0.12604E-07  1192   0.317E-03    0.342E-03
DAV:  61    -0.135861571925E+02    0.12201E-04   -0.16095E-07  1064   0.280E-03    0.336E-03
DAV:  62    -0.135861534201E+02    0.37723E-05   -0.17557E-07  1024   0.271E-03    0.334E-03
DAV:  63    -0.135861495631E+02    0.38571E-05   -0.68731E-07  1112   0.343E-03    0.333E-03
DAV:  64    -0.135861486471E+02    0.91598E-06   -0.70528E-07  1136   0.361E-03    0.333E-03
DAV:  65    -0.135861489174E+02   -0.27038E-06   -0.11605E-06  1256   0.559E-03    0.332E-03
DAV:  66    -0.135861563978E+02   -0.74804E-05   -0.17778E-06  1104   0.718E-03    0.331E-03
DAV:  67    -0.135861635929E+02   -0.71951E-05   -0.49291E-06  1112   0.825E-03    0.331E-03
DAV:  68    -0.135861745652E+02   -0.10972E-04   -0.59504E-06  1112   0.781E-03    0.285E-03
DAV:  69    -0.136090404113E+02   -0.22866E-01   -0.16227E-03  1080   0.762E-03    0.777E-01
DAV:  70    -0.135860001191E+02    0.23040E-01   -0.95948E+00  1408   0.782E-01    0.302E-02
DAV:  71    -0.135861035882E+02   -0.10347E-03   -0.12596E-04  1704   0.182E-01    0.168E-02
DAV:  72    -0.135861029499E+02    0.63826E-06   -0.81318E-06  1576   0.325E-02    0.115E-02
DAV:  73    -0.135861316603E+02   -0.28710E-04   -0.27755E-06  1320   0.167E-02    0.825E-03
DAV:  74    -0.135861364462E+02   -0.47859E-05   -0.16632E-06  1264   0.113E-02    0.522E-03
DAV:  75    -0.135861378127E+02   -0.13665E-05   -0.17171E-07  1360   0.501E-03    0.409E-03
DAV:  76    -0.135861321115E+02    0.57012E-05   -0.67638E-08  1096   0.301E-03    0.370E-03
DAV:  77    -0.135861342783E+02   -0.21668E-05   -0.42621E-08  1072   0.296E-03    0.344E-03
DAV:  78    -0.135861312166E+02    0.30617E-05   -0.60793E-08  1008   0.214E-03    0.334E-03
DAV:  79    -0.135861319969E+02   -0.78025E-06   -0.25469E-07  1040   0.291E-03    0.329E-03
DAV:  80    -0.135861345336E+02   -0.25367E-05   -0.33136E-07  1088   0.320E-03    0.327E-03
DAV:  81    -0.135861356591E+02   -0.11256E-05   -0.11742E-08  1008   0.143E-03    0.326E-03
DAV:  82    -0.135861511949E+02   -0.15536E-04   -0.54327E-06  1456   0.425E-02    0.187E-02
DAV:  83    -0.135862018801E+02   -0.50685E-04   -0.39927E-06  1728   0.316E-02    0.715E-03
DAV:  84    -0.135862341481E+02   -0.32268E-04   -0.38931E-06  1416   0.114E-02    0.735E-03
DAV:  85    -0.135862396751E+02   -0.55270E-05   -0.23557E-06  1424   0.143E-02    0.377E-03
DAV:  86    -0.135862356509E+02    0.40242E-05   -0.22866E-07  1256   0.600E-03    0.335E-03
DAV:  87    -0.135862332519E+02    0.23990E-05   -0.13547E-07  1080   0.339E-03    0.358E-03
DAV:  88    -0.135862247362E+02    0.85157E-05   -0.11346E-06  1160   0.363E-03    0.360E-03
DAV:  89    -0.135862280534E+02   -0.33172E-05   -0.41151E-07  1048   0.350E-03    0.357E-03
DAV:  90    -0.135862287956E+02   -0.74220E-06   -0.17650E-07  1032   0.193E-03    0.353E-03
DAV:  91    -0.135862258516E+02    0.29441E-05   -0.91548E-07  1264   0.343E-03    0.348E-03
DAV:  92    -0.135862208020E+02    0.50495E-05   -0.13800E-06  1080   0.422E-03    0.345E-03
DAV:  93    -0.135862187373E+02    0.20648E-05   -0.25136E-07  1016   0.363E-03    0.345E-03
DAV:  94    -0.135862164933E+02    0.22439E-05   -0.64748E-07  1024   0.358E-03    0.343E-03
DAV:  95    -0.135862149353E+02    0.15581E-05   -0.13422E-05  1144   0.621E-03    0.337E-03
DAV:  96    -0.135862130208E+02    0.19144E-05   -0.68079E-05  1128   0.158E-02    0.337E-03
DAV:  97    -0.135862094089E+02    0.36120E-05   -0.14632E-06  1104   0.456E-03    0.330E-03
DAV:  98    -0.135862035386E+02    0.58703E-05   -0.18790E-06  1176   0.383E-03    0.324E-03
DAV:  99    -0.135862025099E+02    0.10287E-05   -0.74902E-06  1120   0.531E-03    0.319E-03
DAV: 100    -0.135862017206E+02    0.78933E-06   -0.26544E-05  1104   0.106E-02    0.316E-03
DAV: 101    -0.135862001719E+02    0.15487E-05   -0.36682E-06  1176   0.695E-03    0.304E-03
DAV: 102    -0.135862055243E+02   -0.53524E-05   -0.27698E-06  1168   0.641E-03    0.305E-03
DAV: 103    -0.135862053552E+02    0.16914E-06   -0.71268E-06  1144   0.842E-03    0.302E-03
DAV: 104    -0.135861959471E+02    0.94081E-05   -0.87309E-06  1160   0.946E-03    0.299E-03
DAV: 105    -0.135861958766E+02    0.70466E-07   -0.81076E-06  1104   0.667E-03    0.296E-03
DAV: 106    -0.135862145525E+02   -0.18676E-04   -0.11112E-06  1336   0.589E-03    0.142E-03
DAV: 107    -0.135861977475E+02    0.16805E-04   -0.17694E-03  1176   0.981E-03    0.296E-03
DAV: 108    -0.136611113403E+02   -0.74914E-01   -0.49469E-01  1160   0.111E-02    0.102E+00
DAV: 109    -0.135859893461E+02    0.75122E-01   -0.11981E+01  1360   0.984E-01    0.329E-02
DAV: 110    -0.135860748014E+02   -0.85455E-04   -0.16530E-04  1752   0.240E-01    0.296E-02
DAV: 111    -0.135861695027E+02   -0.94701E-04   -0.12799E-05  1648   0.628E-02    0.769E-03
DAV: 112    -0.135862015674E+02   -0.32065E-04   -0.10428E-05  1536   0.411E-02    0.955E-03
DAV: 113    -0.135861761902E+02    0.25377E-04   -0.21384E-06  1400   0.145E-02    0.747E-03
DAV: 114    -0.135861438302E+02    0.32360E-04   -0.27708E-06  1352   0.109E-02    0.668E-03
DAV: 115    -0.135861727005E+02   -0.28870E-04   -0.11971E-06  1376   0.124E-02    0.326E-03
DAV: 116    -0.135861705452E+02    0.21553E-05   -0.16265E-06  1256   0.116E-02    0.153E-03
DAV: 117    -0.135861849673E+02   -0.14422E-04   -0.32353E-06  1472   0.106E-02    0.142E-03
DAV: 118    -0.135861660431E+02    0.18924E-04   -0.14614E-06  1360   0.676E-03    0.127E-03
DAV: 119    -0.135861362675E+02    0.29776E-04   -0.30458E-06  1424   0.777E-03    0.119E-03
DAV: 120    -0.135861304792E+02    0.57883E-05   -0.22278E-06  1224   0.939E-03    0.113E-03
DAV: 121    -0.135861482331E+02   -0.17754E-04   -0.29858E-06  1288   0.989E-03    0.108E-03
DAV: 122    -0.135861568014E+02   -0.85683E-05   -0.21622E-06  1288   0.848E-03    0.101E-03
DAV: 123    -0.135861789204E+02   -0.22119E-04   -0.23431E-06  1208   0.899E-03    0.872E-04
DAV: 124    -0.135861903582E+02   -0.11438E-04   -0.38207E-06  1240   0.115E-02    0.651E-04
DAV: 125    -0.135862163820E+02   -0.26024E-04   -0.34822E-06  1280   0.126E-02    0.406E-04
DAV: 126    -0.135862274674E+02   -0.11085E-04   -0.41295E-06  1232   0.130E-02    0.345E-04
DAV: 127    -0.135862345363E+02   -0.70689E-05   -0.46443E-06  1368   0.130E-02    0.337E-04
DAV: 128    -0.135862539675E+02   -0.19431E-04   -0.27852E-06  1168   0.945E-03    0.253E-04
DAV: 129    -0.145939121818E+02   -0.10077E+01   -0.85129E+00  1320   0.996E-03    0.559E+00
DAV: 130    -0.135883177041E+02    0.10056E+01   -0.65623E+01  1440   0.709E+00    0.164E-01
DAV: 131    -0.135858896304E+02    0.24281E-02   -0.38350E-03  1696   0.116E+00    0.134E-01
DAV: 132    -0.135860731441E+02   -0.18351E-03   -0.12822E-04  1632   0.194E-01    0.702E-02
DAV: 133    -0.135860705737E+02    0.25703E-05   -0.31684E-05  1632   0.706E-02    0.455E-02
DAV: 134    -0.135861027651E+02   -0.32191E-04   -0.94347E-06  1504   0.407E-02    0.306E-02
DAV: 135    -0.135861323632E+02   -0.29598E-04   -0.44816E-06  1656   0.305E-02    0.176E-02
DAV: 136    -0.135861612933E+02   -0.28930E-04   -0.34531E-06  1416   0.222E-02    0.868E-03
DAV: 137    -0.135861651615E+02   -0.38682E-05   -0.20291E-06  1352   0.107E-02    0.613E-03
DAV: 138    -0.135861620461E+02    0.31154E-05   -0.12418E-06  1224   0.920E-03    0.406E-03
DAV: 139    -0.135861585783E+02    0.34678E-05   -0.68033E-06  1328   0.117E-02    0.268E-03
DAV: 140    -0.135861559767E+02    0.26016E-05   -0.49185E-06  1240   0.919E-03    0.252E-03
DAV: 141    -0.135861468932E+02    0.90836E-05   -0.96217E-07  1104   0.533E-03    0.249E-03
DAV: 142    -0.135861431768E+02    0.37164E-05   -0.16812E-06  1128   0.605E-03    0.250E-03
DAV: 143    -0.135861480504E+02   -0.48736E-05   -0.22341E-06  1128   0.528E-03    0.250E-03
DAV: 144    -0.135861512254E+02   -0.31750E-05   -0.30901E-06  1152   0.715E-03    0.250E-03
DAV: 145    -0.135861546563E+02   -0.34309E-05   -0.18075E-06  1096   0.591E-03    0.251E-03
DAV: 146    -0.135861593207E+02   -0.46643E-05   -0.13575E-05  1152   0.717E-03    0.250E-03
DAV: 147    -0.135861554644E+02    0.38562E-05   -0.49226E-05  1128   0.227E-02    0.250E-03
DAV: 148    -0.135861579338E+02   -0.24694E-05   -0.61409E-06  1096   0.997E-03    0.249E-03
DAV: 149    -0.135861602472E+02   -0.23133E-05   -0.21315E-06  1136   0.574E-03    0.249E-03
DAV: 150    -0.135861624357E+02   -0.21885E-05   -0.36366E-06  1224   0.704E-03    0.249E-03
DAV: 151    -0.135861667644E+02   -0.43287E-05   -0.76944E-06  1112   0.787E-03    0.249E-03
DAV: 152    -0.135861627311E+02    0.40333E-05   -0.94910E-06  1264   0.132E-02    0.375E-03
DAV: 153    -0.135861590874E+02    0.36437E-05   -0.32260E-06  1544   0.246E-02    0.820E-03
DAV: 154    -0.135861739903E+02   -0.14903E-04   -0.25689E-06  1392   0.109E-02    0.699E-03
DAV: 155    -0.135862081791E+02   -0.34189E-04   -0.23255E-06  1576   0.137E-02    0.353E-03
DAV: 156    -0.135862348590E+02   -0.26680E-04   -0.90809E-07  1328   0.879E-03    0.191E-03
DAV: 157    -0.135862328865E+02    0.19724E-05   -0.17526E-06  1312   0.634E-03    0.184E-03
DAV: 158    -0.135862405366E+02   -0.76501E-05   -0.44932E-07  1128   0.464E-03    0.168E-03
DAV: 159    -0.135862423536E+02   -0.18170E-05   -0.42812E-07  1112   0.396E-03    0.166E-03
DAV: 160    -0.135862421255E+02    0.22810E-06   -0.34835E-07  1120   0.352E-03    0.163E-03
DAV: 161    -0.135862415938E+02    0.53170E-06   -0.53227E-07  1208   0.395E-03    0.162E-03
DAV: 162    -0.135862517700E+02   -0.10176E-04   -0.14451E-06  1120   0.527E-03    0.167E-03
DAV: 163    -0.135862512980E+02    0.47207E-06   -0.86537E-07  1248   0.412E-03    0.166E-03
DAV: 164    -0.135862590179E+02   -0.77200E-05   -0.16154E-07  1168   0.320E-03    0.133E-03
DAV: 165    -0.135862680991E+02   -0.90812E-05   -0.30049E-03  1112   0.262E-03    0.165E-03
DAV: 166    -0.135862702804E+02   -0.21813E-05   -0.90198E-08  1040   0.243E-03    0.165E-03
DAV: 167    -0.135862716703E+02   -0.13899E-05   -0.17980E-07  1024   0.281E-03    0.165E-03
DAV: 168    -0.135862714713E+02    0.19899E-06   -0.27897E-07  1136   0.325E-03    0.166E-03
DAV: 169    -0.135862714485E+02    0.22799E-07   -0.25738E-08  1024   0.132E-03
   5 F= -.13586271E+02 E0= -.13562817E+02  d E =-.563432E-04  mag=     0.9393
       N       E                     dE             d eps       ncg     rms          rms(c)
DAV:   1    -0.135862722219E+02   -0.75064E-06   -0.90626E-07  1288   0.118E-02    0.253E-03
DAV:   2    -0.135863118620E+02   -0.39640E-04   -0.47342E-06  1368   0.257E-02    0.362E-03
DAV:   3    -0.135862874881E+02    0.24374E-04   -0.32177E-06  1312   0.207E-02    0.110E-03
DAV:   4    -0.135862869868E+02    0.50134E-06   -0.10390E-06  1200   0.652E-03    0.651E-04
DAV:   5    -0.135862659938E+02    0.20993E-04   -0.51634E-07  1080   0.381E-03    0.524E-04
DAV:   6    -0.135862162553E+02    0.49738E-04   -0.52556E-07  1408   0.514E-03    0.485E-04
DAV:   7    -0.135862177054E+02   -0.14501E-05   -0.49253E-07  1360   0.437E-03    0.351E-04
DAV:   8    -0.135862359270E+02   -0.18222E-04   -0.27124E-06  1416   0.645E-03    0.258E-04
DAV:   9    -0.166864802576E+02   -0.31002E+01   -0.25705E+01  1520   0.192E-02    0.135E+01
DAV:  10    -0.136033279312E+02    0.30832E+01   -0.26915E+02  1224   0.297E+01    0.279E-01
DAV:  11    -0.135872303198E+02    0.16098E-01   -0.11631E-02  1664   0.214E+00    0.211E-01
DAV:  12    -0.135856245759E+02    0.16057E-02   -0.65908E-04  1728   0.511E-01    0.771E-02
DAV:  13    -0.135858911332E+02   -0.26656E-03   -0.73239E-05  1464   0.975E-02    0.585E-02
DAV:  14    -0.135861029142E+02   -0.21178E-03   -0.87035E-06  1536   0.436E-02    0.443E-02
DAV:  15    -0.135860592440E+02    0.43670E-04   -0.38667E-06  1496   0.263E-02    0.342E-02
DAV:  16    -0.135860578261E+02    0.14179E-05   -0.12775E-06  1400   0.141E-02    0.286E-02
DAV:  17    -0.135860855918E+02   -0.27766E-04   -0.97066E-07  1440   0.140E-02    0.227E-02
DAV:  18    -0.135861347055E+02   -0.49114E-04   -0.22695E-06  1264   0.144E-02    0.172E-02
DAV:  19    -0.135861802092E+02   -0.45504E-04   -0.30227E-06  1432   0.110E-02    0.136E-02
DAV:  20    -0.135862191556E+02   -0.38946E-04   -0.84503E-07  1392   0.531E-03    0.121E-02
DAV:  21    -0.135862299264E+02   -0.10771E-04   -0.15277E-07  1096   0.320E-03    0.111E-02
DAV:  22    -0.135862298602E+02    0.66187E-07   -0.13001E-06  1144   0.413E-03    0.100E-02
DAV:  23    -0.135862281012E+02    0.17590E-05   -0.20140E-06  1368   0.859E-03    0.799E-03
DAV:  24    -0.135862226047E+02    0.54965E-05   -0.95637E-07  1152   0.706E-03    0.660E-03
DAV:  25    -0.135862108481E+02    0.11757E-04   -0.27467E-06  1200   0.114E-02    0.530E-03
DAV:  26    -0.135861970658E+02    0.13782E-04   -0.14029E-06  1184   0.107E-02    0.240E-03
DAV:  27    -0.135862011995E+02   -0.41337E-05   -0.18572E-06  1320   0.710E-03    0.992E-04
DAV:  28    -0.135861988925E+02    0.23070E-05   -0.76896E-07  1064   0.598E-03    0.780E-04
DAV:  29    -0.135861997355E+02   -0.84292E-06   -0.14905E-07  1112   0.265E-03    0.760E-04
DAV:  30    -0.135862012474E+02   -0.15119E-05   -0.31251E-07  1088   0.323E-03    0.783E-04
DAV:  31    -0.135862021055E+02   -0.85814E-06   -0.77109E-07  1040   0.456E-03    0.674E-04
DAV:  32    -0.135862046584E+02   -0.25529E-05   -0.83166E-07  1120   0.403E-03    0.634E-04
DAV:  33    -0.135862107006E+02   -0.60422E-05   -0.20519E-06  1256   0.723E-03    0.609E-04
DAV:  34    -0.135862226221E+02   -0.11922E-04   -0.26816E-05  1264   0.718E-03    0.621E-04
DAV:  35    -0.138841123272E+02   -0.29789E+00   -0.14073E+00  1176   0.937E-03    0.312E+00
DAV:  36    -0.135859794332E+02    0.29813E+00   -0.50555E+01  1392   0.501E+00    0.850E-02
DAV:  37    -0.135857908343E+02    0.18860E-03   -0.14325E-03  1752   0.684E-01    0.101E-01
DAV:  38    -0.135861010960E+02   -0.31026E-03   -0.62883E-05  1632   0.155E-01    0.349E-02
DAV:  39    -0.135861571590E+02   -0.56063E-04   -0.13770E-05  1576   0.380E-02    0.242E-02
DAV:  40    -0.135861869688E+02   -0.29810E-04   -0.49494E-06  1376   0.209E-02    0.191E-02
DAV:  41    -0.135861823762E+02    0.45926E-05   -0.10540E-06  1472   0.118E-02    0.136E-02
DAV:  42    -0.135862179821E+02   -0.35606E-04   -0.13702E-05  1464   0.139E-02    0.951E-03
DAV:  43    -0.135862437074E+02   -0.25725E-04   -0.14169E-05  1208   0.147E-02    0.657E-03
DAV:  44    -0.135862468719E+02   -0.31645E-05   -0.11492E-06  1320   0.365E-03    0.580E-03
DAV:  45    -0.135862481092E+02   -0.12373E-05   -0.45012E-08  1176   0.235E-03    0.501E-03
DAV:  46    -0.135862491812E+02   -0.10720E-05   -0.81674E-08  1336   0.315E-03    0.379E-03
DAV:  47    -0.135862513173E+02   -0.21361E-05   -0.19941E-07  1296   0.537E-03    0.179E-03
DAV:  48    -0.135862549072E+02   -0.35899E-05   -0.19860E-07  1032   0.335E-03    0.127E-03
DAV:  49    -0.135862536466E+02    0.12606E-05   -0.52001E-08  1024   0.218E-03    0.119E-03
DAV:  50    -0.135862593054E+02   -0.56588E-05   -0.15134E-07  1152   0.258E-03    0.109E-03
DAV:  51    -0.135862699037E+02   -0.10598E-04   -0.12777E-06  1160   0.452E-03    0.105E-03
DAV:  52    -0.135862581561E+02    0.11748E-04   -0.56539E-06  1256   0.172E-02    0.613E-03
DAV:  53    -0.135862639469E+02   -0.57908E-05   -0.51533E-07  1480   0.510E-03    0.559E-03
DAV:  54    -0.135862632065E+02    0.74047E-06   -0.37999E-07  1128   0.297E-03    0.516E-03
DAV:  55    -0.135862557839E+02    0.74225E-05   -0.13832E-06  1232   0.542E-03    0.363E-03
DAV:  56    -0.135862453775E+02    0.10406E-04   -0.33139E-06  1264   0.835E-03    0.175E-03
DAV:  57    -0.135862356997E+02    0.96778E-05   -0.11300E-06  1368   0.633E-03    0.113E-03
DAV:  58    -0.135862419992E+02   -0.62995E-05   -0.41727E-06  1296   0.969E-03    0.976E-04
DAV:  59    -0.135862390387E+02    0.29605E-05   -0.39763E-06  1280   0.116E-02    0.953E-04
DAV:  60    -0.174767170223E+02   -0.38905E+01   -0.30071E+01  1408   0.137E-02    0.144E+01
DAV:  61    -0.136196880968E+02    0.38570E+01   -0.30473E+02  1320   0.296E+01    0.335E-01
DAV:  62    -0.135847024443E+02    0.34986E-01   -0.15627E-02  1712   0.272E+00    0.348E-01
DAV:  63    -0.135857750593E+02   -0.10726E-02   -0.64798E-04  1536   0.512E-01    0.126E-01
DAV:  64    -0.135858979270E+02   -0.12287E-03   -0.14331E-04  1688   0.173E-01    0.527E-02
DAV:  65    -0.135859415795E+02   -0.43652E-04   -0.33315E-05  1592   0.881E-02    0.141E-02
DAV:  66    -0.135860002872E+02   -0.58708E-04   -0.81155E-06  1632   0.371E-02    0.902E-03
DAV:  67    -0.135860249240E+02   -0.24637E-04   -0.97696E-07  1568   0.110E-02    0.104E-02
DAV:  68    -0.135860565094E+02   -0.31585E-04   -0.18048E-07  1144   0.515E-03    0.977E-03
DAV:  69    -0.135860406358E+02    0.15874E-04   -0.63818E-07  1480   0.106E-02    0.750E-03
DAV:  70    -0.135860207175E+02    0.19918E-04   -0.10423E-06  1472   0.800E-03    0.696E-03
DAV:  71    -0.135860104588E+02    0.10259E-04   -0.86962E-07  1200   0.640E-03    0.692E-03
DAV:  72    -0.135860134296E+02   -0.29707E-05   -0.12438E-06  1224   0.625E-03    0.690E-03
DAV:  73    -0.135860168406E+02   -0.34110E-05   -0.47247E-07  1232   0.436E-03    0.692E-03
DAV:  74    -0.135860164326E+02    0.40793E-06   -0.37776E-06  1224   0.715E-03    0.696E-03
DAV:  75    -0.135860179919E+02   -0.15592E-05   -0.26005E-06  1208   0.662E-03    0.695E-03
DAV:  76    -0.135860174263E+02    0.56559E-06   -0.69477E-07  1128   0.440E-03    0.695E-03
DAV:  77    -0.135860368733E+02   -0.19447E-04   -0.16857E-05  1592   0.678E-02    0.321E-02
DAV:  78    -0.135860462859E+02   -0.94126E-05   -0.27775E-06  1416   0.180E-02    0.281E-02
DAV:  79    -0.135860418011E+02    0.44849E-05   -0.11088E-06  1328   0.152E-02    0.223E-02
DAV:  80    -0.135860378230E+02    0.39781E-05   -0.14723E-06  1304   0.182E-02    0.151E-02
DAV:  81    -0.135860685232E+02   -0.30700E-04   -0.15205E-06  1512   0.157E-02    0.973E-03
DAV:  82    -0.135860855725E+02   -0.17049E-04   -0.94177E-07  1400   0.103E-02    0.801E-03
DAV:  83    -0.135860796896E+02    0.58829E-05   -0.46804E-07  1296   0.470E-03    0.792E-03
DAV:  84    -0.135860758558E+02    0.38338E-05   -0.18811E-06  1232   0.658E-03    0.784E-03
DAV:  85    -0.135860784036E+02   -0.25478E-05   -0.18406E-06  1272   0.694E-03    0.784E-03
DAV:  86    -0.135860838072E+02   -0.54036E-05   -0.10260E-06  1232   0.633E-03    0.785E-03
DAV:  87    -0.135861007099E+02   -0.16903E-04   -0.11593E-06  1184   0.705E-03    0.783E-03
DAV:  88    -0.135861004881E+02    0.22177E-06   -0.28690E-06  1216   0.608E-03    0.783E-03
DAV:  89    -0.138694552561E+02   -0.28335E+00   -0.16239E+00  1240   0.939E-03    0.255E+00
DAV:  90    -0.135852093154E+02    0.28425E+00   -0.29555E+01  1472   0.215E+00    0.834E-02
[...]
DAV: 206    -0.135861929237E+02   -0.14425E-04   -0.21336E-06  1216   0.908E-03    0.240E-03
DAV: 207    -0.135862079614E+02   -0.15038E-04   -0.12818E-06  1160   0.835E-03    0.272E-03
DAV: 208    -0.135862329708E+02   -0.25009E-04   -0.27231E-06  1400   0.866E-03    0.216E-03
DAV: 209    -0.135862319692E+02    0.10016E-05   -0.53126E-06  1224   0.826E-03    0.194E-03
DAV: 210    -0.135862492893E+02   -0.17320E-04   -0.11408E-05  1216   0.121E-02    0.183E-03
DAV: 211    -0.135862567105E+02   -0.74212E-05   -0.68572E-06  1120   0.918E-03    0.180E-03
DAV: 212    -0.135862593921E+02   -0.26816E-05   -0.14937E-05  1128   0.947E-03    0.182E-03
DAV: 213    -0.135862690256E+02   -0.96335E-05   -0.28090E-06  1080   0.426E-03    0.109E-03
DAV: 214    -0.135862719378E+02   -0.29122E-05   -0.14549E-02  1088   0.963E-03    0.182E-03
DAV: 215    -0.135862696150E+02    0.23228E-05   -0.72013E-07  1176   0.187E-03    0.183E-03
DAV: 216    -0.135862705621E+02   -0.94703E-06   -0.66074E-08  1056   0.117E-03    0.180E-03
DAV: 217    -0.135862828192E+02   -0.12257E-04   -0.57532E-07  1264   0.191E-03    0.181E-03
DAV: 218    -0.135862832010E+02   -0.38179E-06   -0.41528E-08  1216   0.898E-04    0.183E-03
DAV: 219    -0.135862804115E+02    0.27895E-05   -0.26328E-08  1256   0.125E-03    0.182E-03
DAV: 220    -0.135862784098E+02    0.20017E-05   -0.18315E-08  1256   0.117E-03    0.182E-03
DAV: 221    -0.135862755012E+02    0.29086E-05   -0.15694E-08  1016   0.127E-03    0.181E-03
DAV: 222    -0.135862748914E+02    0.60988E-06   -0.87237E-09  1072   0.984E-04    0.181E-03
DAV: 223    -0.135862748428E+02    0.48596E-07   -0.96533E-09   992   0.999E-04
   8 F= -.13586275E+02 E0= -.13562819E+02  d E =-.720875E-04  mag=     0.9393
       N       E                     dE             d eps       ncg     rms          rms(c)
DAV:   1    -0.135862753207E+02   -0.42933E-06   -0.10664E-05  1504   0.404E-02    0.590E-03
DAV:   2    -0.135863509903E+02   -0.75670E-04   -0.12996E-05  1680   0.465E-02    0.656E-03
DAV:   3    -0.135862929352E+02    0.58055E-04   -0.19805E-06  1624   0.396E-02    0.329E-03
DAV:   4    -0.135863363564E+02   -0.43421E-04   -0.16810E-06  1408   0.149E-02    0.975E-04
DAV:   5    -0.135862910457E+02    0.45311E-04   -0.12533E-06  1192   0.420E-03    0.539E-04
DAV:   6    -0.135862727983E+02    0.18247E-04   -0.11343E-07  1112   0.257E-03    0.405E-04
DAV:   7    -0.135862598272E+02    0.12971E-04   -0.11390E-07  1184   0.279E-03    0.523E-04
DAV:   8    -0.135862340654E+02    0.25762E-04   -0.22361E-07  1456   0.326E-03    0.232E-04
DAV:   9    -0.135862000000E+02    0.34065E-04   -0.20456E-07  1184   0.304E-03    0.103E-04
DAV:  10    -0.135862020474E+02   -0.20473E-05   -0.82941E-07  1464   0.460E-03    0.130E-04
DAV:  11    -0.145569983093E+02   -0.97080E+00   -0.87241E+00  1544   0.134E-02    0.410E+00
DAV:  12    -0.135867438177E+02    0.97025E+00   -0.26037E+01  1216   0.272E+00    0.117E-01
DAV:  13    -0.135860993388E+02    0.64448E-03   -0.22538E-03  1744   0.837E-01    0.747E-02
DAV:  14    -0.135859406167E+02    0.15872E-03   -0.10969E-04  1456   0.165E-01    0.349E-02
DAV:  15    -0.135861561543E+02   -0.21554E-03   -0.16208E-05  1480   0.458E-02    0.273E-02
DAV:  16    -0.135862169744E+02   -0.60820E-04   -0.10395E-05  1368   0.236E-02    0.199E-02
DAV:  17    -0.135862054020E+02    0.11572E-04   -0.39659E-06  1416   0.139E-02    0.162E-02
DAV:  18    -0.135861935864E+02    0.11816E-04   -0.18096E-06  1336   0.874E-03    0.138E-02
DAV:  19    -0.135862019880E+02   -0.84016E-05   -0.15457E-06  1320   0.939E-03    0.114E-02
DAV:  20    -0.135861916452E+02    0.10343E-04   -0.21116E-06  1336   0.106E-02    0.938E-03
DAV:  21    -0.135861914997E+02    0.14555E-06   -0.17836E-05  1368   0.170E-02    0.705E-03
DAV:  22    -0.135861926656E+02   -0.11659E-05   -0.65890E-06  1336   0.139E-02    0.556E-03
DAV:  23    -0.135861911002E+02    0.15654E-05   -0.23706E-06  1288   0.918E-03    0.487E-03
DAV:  24    -0.135861987485E+02   -0.76483E-05   -0.15675E-06  1136   0.767E-03    0.421E-03
DAV:  25    -0.135861991346E+02   -0.38614E-06   -0.81709E-07  1160   0.697E-03    0.341E-03
DAV:  26    -0.135861963646E+02    0.27700E-05   -0.31547E-06  1296   0.946E-03    0.236E-03
DAV:  27    -0.135862007327E+02   -0.43680E-05   -0.41270E-06  1160   0.113E-02    0.144E-03
DAV:  28    -0.135862121634E+02   -0.11431E-04   -0.10160E-04  1528   0.135E-02    0.103E-03
DAV:  29    -0.135862076966E+02    0.44668E-05   -0.19910E-03  1192   0.101E-01    0.926E-04
DAV:  30    -0.135862090276E+02   -0.13310E-05   -0.15089E-05  1280   0.949E-03    0.945E-04
DAV:  31    -0.135862114168E+02   -0.23892E-05   -0.71149E-07  1096   0.480E-03    0.939E-04
DAV:  32    -0.135862228360E+02   -0.11419E-04   -0.19639E-06  1128   0.854E-03    0.756E-04
DAV:  33    -0.283532361167E+02   -0.14767E+02   -0.13970E+02  1400   0.845E-03    0.168E+01
DAV:  34    -0.136125057332E+02    0.14741E+02   -0.20574E+02  1280   0.309E+01    0.333E-01
DAV:  35    -0.135837993845E+02    0.28706E-01   -0.15106E-02  1704   0.266E+00    0.378E-01
DAV:  36    -0.135851531827E+02   -0.13538E-02   -0.11044E-03  1520   0.603E-01    0.120E-01
DAV:  37    -0.135858714552E+02   -0.71827E-03   -0.18601E-04  1592   0.177E-01    0.683E-02
DAV:  38    -0.135860436924E+02   -0.17224E-03   -0.19969E-05  1680   0.535E-02    0.491E-02
DAV:  39    -0.135860720486E+02   -0.28356E-04   -0.27216E-06  1464   0.216E-02    0.425E-02
DAV:  40    -0.135861187001E+02   -0.46652E-04   -0.43305E-06  1608   0.327E-02    0.293E-02
DAV:  41    -0.135861289751E+02   -0.10275E-04   -0.62012E-06  1384   0.386E-02    0.129E-02
DAV:  42    -0.135861198399E+02    0.91352E-05   -0.17896E-06  1560   0.152E-02    0.867E-03
DAV:  43    -0.135861066887E+02    0.13151E-04   -0.18604E-06  1344   0.120E-02    0.606E-03
DAV:  44    -0.135861135779E+02   -0.68892E-05   -0.59893E-06  1296   0.143E-02    0.427E-03
DAV:  45    -0.135861186243E+02   -0.50464E-05   -0.59692E-06  1416   0.116E-02    0.338E-03
DAV:  46    -0.135861284005E+02   -0.97762E-05   -0.73325E-06  1376   0.129E-02    0.303E-03
DAV:  47    -0.135861425460E+02   -0.14145E-04   -0.35868E-06  1248   0.930E-03    0.286E-03
DAV:  48    -0.135861442426E+02   -0.16966E-05   -0.32358E-06  1256   0.919E-03    0.257E-03
DAV:  49    -0.135861437528E+02    0.48975E-06   -0.49835E-06  1304   0.125E-02    0.231E-03
DAV:  50    -0.135861497388E+02   -0.59860E-05   -0.61922E-06  1352   0.124E-02    0.207E-03
DAV:  51    -0.135861510357E+02   -0.12969E-05   -0.57140E-06  1256   0.129E-02    0.190E-03
DAV:  52    -0.135861526997E+02   -0.16640E-05   -0.14679E-06  1208   0.704E-03    0.170E-03
DAV:  53    -0.135861549506E+02   -0.22509E-05   -0.16219E-06  1296   0.673E-03    0.167E-03
DAV:  54    -0.135861574176E+02   -0.24670E-05   -0.80451E-07  1232   0.564E-03    0.170E-03
DAV:  55    -0.135861575752E+02   -0.15766E-06   -0.31478E-06  1216   0.537E-03    0.170E-03
DAV:  56    -0.135861579410E+02   -0.36575E-06   -0.68280E-06  1272   0.831E-03    0.169E-03
DAV:  57    -0.135861596961E+02   -0.17551E-05   -0.94249E-06  1632   0.215E-02    0.701E-03
DAV:  58    -0.135861762657E+02   -0.16570E-04   -0.84328E-06  1424   0.156E-02    0.588E-03
DAV:  59    -0.135861808654E+02   -0.45997E-05   -0.82048E-06  1216   0.122E-02    0.538E-03
DAV:  60    -0.135861848949E+02   -0.40294E-05   -0.11739E-06  1352   0.785E-03    0.412E-03
DAV:  61    -0.135861752683E+02    0.96266E-05   -0.73413E-06  1424   0.101E-02    0.299E-03
DAV:  62    -0.135861936474E+02   -0.18379E-04   -0.95189E-06  1376   0.139E-02    0.236E-03
DAV:  63    -0.135861759234E+02    0.17724E-04   -0.39026E-06  1208   0.113E-02    0.203E-03
DAV:  64    -0.135861795955E+02   -0.36721E-05   -0.29380E-06  1344   0.109E-02    0.186E-03
DAV:  65    -0.135861788533E+02    0.74220E-06   -0.59966E-06  1344   0.136E-02    0.175E-03
DAV:  66    -0.135861795713E+02   -0.71802E-06   -0.73604E-06  1240   0.129E-02    0.172E-03
DAV:  67    -0.143950889383E+02   -0.80891E+00   -0.57982E+00  1328   0.127E-02    0.526E+00
DAV:  68    -0.135815065986E+02    0.81358E+00   -0.76350E+01  1400   0.842E+00    0.130E-01
DAV:  69    -0.135854390308E+02   -0.39324E-02   -0.68408E-02  1624   0.120E+00    0.175E-01
DAV:  70    -0.135858657008E+02   -0.42667E-03   -0.93107E-04  1672   0.211E-01    0.939E-02
DAV:  71    -0.135860743730E+02   -0.20867E-03   -0.75786E-05  1680   0.102E-01    0.460E-02
DAV:  72    -0.135861694140E+02   -0.95041E-04   -0.15271E-05  1632   0.579E-02    0.212E-02
DAV:  73    -0.135861905951E+02   -0.21181E-04   -0.67285E-06  1488   0.245E-02    0.129E-02
DAV:  74    -0.135862248111E+02   -0.34216E-04   -0.37437E-06  1568   0.221E-02    0.579E-03
DAV:  75    -0.135862118622E+02    0.12949E-04   -0.31150E-06  1344   0.124E-02    0.412E-03
DAV:  76    -0.135862119781E+02   -0.11590E-06   -0.33435E-06  1376   0.899E-03    0.341E-03
DAV:  77    -0.135862341660E+02   -0.22188E-04   -0.80528E-06  1512   0.320E-02    0.123E-02
DAV:  78    -0.135862120413E+02    0.22125E-04   -0.12480E-06  1312   0.101E-02    0.117E-02
DAV:  79    -0.135862107785E+02    0.12628E-05   -0.87097E-07  1352   0.109E-02    0.840E-03
DAV:  80    -0.135862210232E+02   -0.10245E-04   -0.69101E-06  1240   0.148E-02    0.540E-03
DAV:  81    -0.135862219027E+02   -0.87952E-06   -0.40169E-06  1216   0.133E-02    0.436E-03
DAV:  82    -0.135862173207E+02    0.45820E-05   -0.36657E-06  1280   0.851E-03    0.399E-03
DAV:  83    -0.135862161881E+02    0.11326E-05   -0.25370E-06  1320   0.829E-03    0.341E-03
DAV:  84    -0.135862100400E+02    0.61481E-05   -0.24359E-06  1496   0.777E-03    0.340E-03
DAV:  85    -0.135862013084E+02    0.87316E-05   -0.34933E-06  1304   0.707E-03    0.338E-03
DAV:  86    -0.135861974923E+02    0.38161E-05   -0.39367E-06  1168   0.589E-03    0.339E-03
DAV:  87    -0.135861968991E+02    0.59314E-06   -0.22134E-06  1056   0.628E-03    0.339E-03
DAV:  88    -0.135861963487E+02    0.55040E-06   -0.29958E-06  1048   0.541E-03    0.339E-03
DAV:  89    -0.140240492272E+02   -0.43785E+00   -0.22824E+00  1080   0.604E-03    0.343E+00
DAV:  90    -0.135830757061E+02    0.44097E+00   -0.40590E+01  1320   0.388E+00    0.111E-01
DAV:  91    -0.135860082457E+02   -0.29325E-02   -0.34599E-02  1560   0.809E-01    0.834E-02
DAV:  92    -0.135861913401E+02   -0.18309E-03   -0.10883E-04  1536   0.165E-01    0.310E-02
DAV:  93    -0.135861367273E+02    0.54613E-04   -0.13895E-05  1544   0.439E-02    0.139E-02
DAV:  94    -0.135861246212E+02    0.12106E-04   -0.85788E-06  1440   0.240E-02    0.650E-03
DAV:  95    -0.135861227362E+02    0.18850E-05   -0.47504E-06  1288   0.137E-02    0.722E-03
DAV:  96    -0.135861402929E+02   -0.17557E-04   -0.80183E-07  1160   0.726E-03    0.703E-03
DAV:  97    -0.135861939225E+02   -0.53630E-04   -0.14827E-06  1248   0.111E-02    0.533E-03
DAV:  98    -0.135862267175E+02   -0.32795E-04   -0.37607E-06  1320   0.113E-02    0.445E-03
DAV:  99    -0.135862296934E+02   -0.29759E-05   -0.13615E-06  1344   0.837E-03    0.462E-03
DAV: 100    -0.135862393299E+02   -0.96365E-05   -0.82878E-07  1240   0.421E-03    0.451E-03
DAV: 101    -0.135862392101E+02    0.11979E-06   -0.14612E-07  1048   0.267E-03    0.433E-03
DAV: 102    -0.135862364359E+02    0.27741E-05   -0.29371E-08  1040   0.212E-03    0.427E-03
DAV: 103    -0.135862313452E+02    0.50907E-05   -0.30346E-08  1040   0.186E-03    0.423E-03
DAV: 104    -0.135862325475E+02   -0.12022E-05   -0.15691E-08   984   0.152E-03    0.421E-03
DAV: 105    -0.135862308688E+02    0.16787E-05   -0.21359E-08   960   0.172E-03    0.419E-03
DAV: 106    -0.135862315292E+02   -0.66044E-06   -0.97108E-09   960   0.109E-03    0.419E-03
DAV: 107    -0.135862307219E+02    0.80731E-06   -0.80290E-09   928   0.944E-04    0.419E-03
DAV: 108    -0.135862324974E+02   -0.17755E-05   -0.14209E-08   960   0.144E-03    0.418E-03
DAV: 109    -0.136779876469E+02   -0.91755E-01   -0.30599E-01   944   0.209E-03    0.113E+00
DAV: 110    -0.135860251341E+02    0.91963E-01   -0.12673E+01  1408   0.781E-01    0.324E-02
DAV: 111    -0.135861954130E+02   -0.17028E-03   -0.18800E-04  1592   0.255E-01    0.337E-02
DAV: 112    -0.135862390450E+02   -0.43632E-04   -0.81169E-06  1640   0.505E-02    0.176E-02
DAV: 113    -0.135862292125E+02    0.98325E-05   -0.33114E-06  1672   0.256E-02    0.830E-03
DAV: 114    -0.135862244200E+02    0.47925E-05   -0.70892E-07  1400   0.841E-03    0.617E-03
DAV: 115    -0.135862156940E+02    0.87260E-05   -0.26321E-07  1144   0.444E-03    0.534E-03
DAV: 116    -0.135862199287E+02   -0.42347E-05   -0.23664E-07  1112   0.356E-03    0.480E-03
DAV: 117    -0.135862213441E+02   -0.14154E-05   -0.34485E-06  1224   0.586E-03    0.443E-03
DAV: 118    -0.135862231370E+02   -0.17929E-05   -0.37392E-06  1120   0.793E-03    0.431E-03
DAV: 119    -0.135862232520E+02   -0.11508E-06   -0.27536E-06  1160   0.478E-03    0.429E-03
DAV: 120    -0.135862231329E+02    0.11913E-06   -0.26506E-06  1088   0.524E-03    0.428E-03
DAV: 121    -0.136131329126E+02   -0.26910E-01   -0.83062E-06  1032   0.465E-03    0.795E-01
DAV: 122    -0.135860524641E+02    0.27080E-01   -0.83404E+00  1400   0.690E-01    0.218E-02
DAV: 123    -0.135862252639E+02   -0.17280E-03   -0.13839E-04  1520   0.187E-01    0.244E-02
DAV: 124    -0.135862558815E+02   -0.30618E-04   -0.67828E-06  1608   0.484E-02    0.821E-03
DAV: 125    -0.135862641163E+02   -0.82348E-05   -0.14114E-06  1312   0.138E-02    0.504E-03
DAV: 126    -0.135862634774E+02    0.63890E-06   -0.20630E-07  1096   0.493E-03    0.438E-03
DAV: 127    -0.135862633889E+02    0.88482E-07   -0.15595E-07  1072   0.273E-03
   9 F= -.13586263E+02 E0= -.13562807E+02  d E =0.114539E-04  mag=     0.9399
       N       E                     dE             d eps       ncg     rms          rms(c)
DAV:   1    -0.135862659219E+02   -0.24445E-05   -0.23684E-05  1400   0.565E-02    0.573E-03
DAV:   2    -0.135863076529E+02   -0.41731E-04   -0.11916E-06  1680   0.188E-02    0.459E-03
DAV:   3    -0.135862777356E+02    0.29917E-04   -0.13768E-06  1520   0.330E-02    0.429E-03
DAV:   4    -0.135863100792E+02   -0.32344E-04   -0.55702E-06  1440   0.259E-02    0.175E-03
DAV:   5    -0.135863183939E+02   -0.83147E-05   -0.21916E-06  1312   0.127E-02    0.112E-03
DAV:   6    -0.135863300733E+02   -0.11679E-04   -0.71132E-06  1248   0.131E-02    0.103E-03
DAV:   7    -0.135862933851E+02    0.36688E-04   -0.14442E-06  1248   0.429E-03    0.731E-04
DAV:   8    -0.135862475711E+02    0.45814E-04   -0.90476E-08  1136   0.222E-03    0.515E-04
DAV:   9    -0.135862335327E+02    0.14038E-04   -0.10737E-07  1144   0.262E-03    0.220E-04
DAV:  10    -0.135862243178E+02    0.92149E-05   -0.70220E-08  1024   0.255E-03    0.157E-04
DAV:  11    -0.135862204110E+02    0.39068E-05   -0.15946E-05  1392   0.857E-03    0.257E-04
DAV:  12    -0.180978758955E+02   -0.45117E+01   -0.40771E+01  1448   0.898E-03    0.161E+01
DAV:  13    -0.136156077164E+02    0.44823E+01   -0.29490E+02  1336   0.264E+01    0.326E-01
DAV:  14    -0.135860983240E+02    0.29509E-01   -0.14689E-02  1656   0.253E+00    0.275E-01
DAV:  15    -0.135863183389E+02   -0.22001E-03   -0.70927E-04  1704   0.649E-01    0.118E-01
DAV:  16    -0.135860365944E+02    0.28174E-03   -0.12381E-04  1672   0.123E-01    0.800E-02
DAV:  17    -0.135860993465E+02   -0.62752E-04   -0.12649E-05  1432   0.544E-02    0.565E-02
DAV:  18    -0.135860935507E+02    0.57958E-05   -0.59449E-06  1432   0.324E-02    0.430E-02
DAV:  19    -0.135861180073E+02   -0.24457E-04   -0.18802E-06  1456   0.201E-02    0.341E-02
DAV:  20    -0.135861151385E+02    0.28689E-05   -0.26342E-06  1312   0.230E-02    0.233E-02
DAV:  21    -0.135861534152E+02   -0.38277E-04   -0.45946E-06  1456   0.138E-02    0.179E-02
DAV:  22    -0.135862068619E+02   -0.53447E-04   -0.28048E-06  1264   0.799E-03    0.156E-02
DAV:  23    -0.135862163834E+02   -0.95215E-05   -0.10971E-07  1136   0.249E-03    0.148E-02
DAV:  24    -0.135862262854E+02   -0.99020E-05   -0.20909E-06  1384   0.658E-03    0.129E-02
DAV:  25    -0.135862085514E+02    0.17734E-04   -0.15208E-06  1160   0.789E-03    0.112E-02
DAV:  26    -0.135861949362E+02    0.13615E-04   -0.15244E-06  1216   0.996E-03    0.812E-03
DAV:  27    -0.135861935326E+02    0.14036E-05   -0.97190E-07  1568   0.104E-02    0.459E-03
DAV:  28    -0.135861976990E+02   -0.41664E-05   -0.44593E-06  1256   0.129E-02    0.356E-03
DAV:  29    -0.135861907249E+02    0.69741E-05   -0.70946E-06  1440   0.188E-02    0.233E-03
DAV:  30    -0.135861835980E+02    0.71269E-05   -0.72035E-06  1216   0.143E-02    0.991E-04
DAV:  31    -0.135861931037E+02   -0.95057E-05   -0.45778E-05  1360   0.206E-02    0.955E-04
DAV:  32    -0.135862019641E+02   -0.88604E-05   -0.11891E-04  1224   0.349E-02    0.966E-04
DAV:  33    -0.135897080448E+02   -0.35061E-02   -0.10083E-04  1232   0.107E-02    0.232E-01
DAV:  34    -0.135861246545E+02    0.35834E-02   -0.28532E+00  1256   0.364E-01    0.676E-03
DAV:  35    -0.135862044234E+02   -0.79769E-04   -0.26906E-05  1680   0.562E-02    0.652E-03
DAV:  36    -0.135862241188E+02   -0.19695E-04   -0.20788E-06  1360   0.141E-02    0.332E-03
DAV:  37    -0.135862475456E+02   -0.23427E-04   -0.15082E-05  1400   0.152E-02    0.227E-03
DAV:  38    -0.135862424836E+02    0.50620E-05   -0.17487E-05  1368   0.203E-02    0.172E-03
DAV:  39    -0.141317669044E+02   -0.54552E+00   -0.32464E+00  1384   0.101E-02    0.369E+00
DAV:  40    -0.135864086801E+02    0.54536E+00   -0.43706E+01  1320   0.377E+00    0.121E-01
DAV:  41    -0.135858566449E+02    0.55204E-03   -0.21763E-03  1656   0.793E-01    0.248E-02
DAV:  42    -0.135861836965E+02   -0.32705E-03   -0.47680E-05  1464   0.104E-01    0.875E-03
DAV:  43    -0.135861582886E+02    0.25408E-04   -0.47788E-06  1400   0.264E-02    0.119E-02
DAV:  44    -0.135861701363E+02   -0.11848E-04   -0.83969E-06  1384   0.175E-02    0.156E-02
DAV:  45    -0.135862298224E+02   -0.59686E-04   -0.67677E-06  1544   0.132E-02    0.137E-02
DAV:  46    -0.135862405422E+02   -0.10720E-04   -0.42051E-06  1272   0.148E-02    0.104E-02
DAV:  47    -0.135862602281E+02   -0.19686E-04   -0.30952E-06  1224   0.110E-02    0.911E-03
DAV:  48    -0.135862706749E+02   -0.10447E-04   -0.54465E-06  1272   0.922E-03    0.733E-03
DAV:  49    -0.135862720556E+02   -0.13807E-05   -0.72546E-07  1176   0.573E-03    0.594E-03
DAV:  50    -0.135862722498E+02   -0.19417E-06   -0.71361E-07  1312   0.439E-03    0.445E-03
DAV:  51    -0.135862747180E+02   -0.24682E-05   -0.18568E-07  1400   0.348E-03    0.302E-03
DAV:  52    -0.135862735399E+02    0.11781E-05   -0.85066E-08  1104   0.234E-03    0.304E-03
DAV:  53    -0.135862749499E+02   -0.14101E-05   -0.10861E-08  1216   0.108E-03    0.280E-03
DAV:  54    -0.135862710912E+02    0.38587E-05   -0.45011E-07  1296   0.317E-03    0.220E-03
DAV:  55    -0.135862735235E+02   -0.24323E-05   -0.80395E-08  1072   0.236E-03    0.211E-03
DAV:  56    -0.135862722064E+02    0.13171E-05   -0.25489E-07  1032   0.275E-03    0.199E-03
DAV:  57    -0.135862095783E+02    0.62628E-04   -0.73087E-06  1688   0.268E-02    0.107E-02
DAV:  58    -0.135862156028E+02   -0.60245E-05   -0.30132E-06  1448   0.142E-02    0.865E-03
DAV:  59    -0.135862273679E+02   -0.11765E-04   -0.22726E-06  1272   0.120E-02    0.709E-03
DAV:  60    -0.135862371271E+02   -0.97592E-05   -0.31337E-06  1400   0.132E-02    0.433E-03
DAV:  61    -0.135862445910E+02   -0.74639E-05   -0.15020E-06  1296   0.111E-02    0.292E-03
DAV:  62    -0.135862585153E+02   -0.13924E-04   -0.44201E-06  1304   0.136E-02    0.254E-03
DAV:  63    -0.135862594618E+02   -0.94649E-06   -0.28240E-06  1328   0.873E-03    0.258E-03
DAV:  64    -0.135862578394E+02    0.16224E-05   -0.39101E-07  1240   0.299E-03    0.255E-03
DAV:  65    -0.135862579237E+02   -0.84237E-07   -0.91120E-08  1200   0.205E-03
  10 F= -.13586258E+02 E0= -.13562807E+02  d E =0.546526E-05  mag=     0.9399
