 vasp.5.4.1 24Jun15 (build Dec 08 2016 12:24:04) complex                        
  
 executed on           IFC91_ompi date 2017.04.09  15:55:30
 running on   32 total cores
 distrk:  each k-point on   32 cores,    1 groups
 distr:  one band on NCORES_PER_BAND=   4 cores,    8 groups


--------------------------------------------------------------------------------------------------------


 INCAR:
 POTCAR:    PAW_PBE Co 02Aug2007                  
 POTCAR:    PAW_PBE O 08Apr2002                   

 ----------------------------------------------------------------------------- 
|                                                                             |
|  ADVICE TO THIS USER RUNNING 'VASP/VAMP'   (HEAR YOUR MASTER'S VOICE ...):  |
|                                                                             |
|      You have switched on vdW-DFT.                                          |
|      This routine was written and supplied by Jiri Klimes.                  |
|      We recommed that you carefully read and cite the following             |
|      publication                                                            |
|      J. Klimes, D.R. Bowler, A. Michelides                                  |
|        J. Phys.: Cond Matt. 22 022201 (2010)                                |
|      J. Klimes, D.R. Bowler, A. Michelides                                  |
|        Phys. Rev. B. 83, 195131 (2011)                                      |
|      and references therein.                                                |
|                                                                             |
 ----------------------------------------------------------------------------- 

 POTCAR:    PAW_PBE Co 02Aug2007                  
   VRHFIN =Co: d8 s1                                                            
   LEXCH  = PE                                                                  
   EATOM  =   813.3670 eV,   59.7808 Ry                                         
                                                                                
   TITEL  = PAW_PBE Co 02Aug2007                                                
   LULTRA =        F    use ultrasoft PP ?                                      
   IUNSCR =        1    unscreen: 0-lin 1-nonlin 2-no                           
   RPACOR =    2.000    partial core radius                                     
   POMASS =   58.933; ZVAL   =    9.000    mass and valenz                      
   RCORE  =    2.300    outmost cutoff radius                                   
   RWIGS  =    2.460; RWIGS  =    1.302    wigner-seitz radius (au A)           
   ENMAX  =  267.968; ENMIN  =  200.976 eV                                      
   RCLOC  =    1.203    cutoff for local pot                                    
   LCOR   =        T    correct aug charges                                     
   LPAW   =        T    paw PP                                                  
   EAUG   =  477.818                                                            
   DEXC   =    0.000                                                            
   RMAX   =    2.360    core radius for proj-oper                               
   RAUG   =    1.300    factor for augmentation sphere                          
   RDEP   =    2.393    radius for radial grids                                 
   RDEPT  =    1.864    core radius for aug-charge                              
                                                                                
   Atomic configuration                                                         
    9 entries                                                                   
     n  l   j            E        occ.                                          
     1  0  0.50     -7587.6674   2.0000                                         
     2  0  0.50      -893.6084   2.0000                                         
     2  1  1.50      -764.5805   6.0000                                         
     3  0  0.50       -97.5973   2.0000                                         
     3  1  1.50       -60.9648   6.0000                                         
     3  2  2.50        -4.2382   8.0000                                         
     4  0  0.50        -4.3746   1.0000                                         
     4  1  1.50        -4.0817   0.0000                                         
     4  3  2.50        -1.3606   0.0000                                         
   Description                                                                  
     l       E           TYP  RCUT    TYP  RCUT                                 
     2     -4.2382362     23  2.300                                             
     2     -5.5988188     23  2.300                                             
     0     -4.3745797     23  2.300                                             
     0      5.7660125     23  2.300                                             
     1     -2.7211652     23  2.300                                             
     1     16.9860234     23  2.300                                             
  local pseudopotential read in
  partial core-charges read in
  partial kinetic energy density read in
  atomic valenz-charges read in
  non local Contribution for L=           2  read in
    real space projection operators read in
  non local Contribution for L=           2  read in
    real space projection operators read in
  non local Contribution for L=           0  read in
    real space projection operators read in
  non local Contribution for L=           0  read in
    real space projection operators read in
  non local Contribution for L=           1  read in
    real space projection operators read in
  non local Contribution for L=           1  read in
    real space projection operators read in
    PAW grid and wavefunctions read in
 
   number of l-projection  operators is LMAX  =           6
   number of lm-projection operators is LMMAX =          18
 
 POTCAR:    PAW_PBE O 08Apr2002                   
   VRHFIN =O: s2p4                                                              
   LEXCH  = PE                                                                  
   EATOM  =   432.3788 eV,   31.7789 Ry                                         
                                                                                
   TITEL  = PAW_PBE O 08Apr2002                                                 
   LULTRA =        F    use ultrasoft PP ?                                      
   IUNSCR =        1    unscreen: 0-lin 1-nonlin 2-no                           
   RPACOR =    1.200    partial core radius                                     
   POMASS =   16.000; ZVAL   =    6.000    mass and valenz                      
   RCORE  =    1.520    outmost cutoff radius                                   
   RWIGS  =    1.550; RWIGS  =    0.820    wigner-seitz radius (au A)           
   ENMAX  =  400.000; ENMIN  =  300.000 eV                                      
   ICORE  =        2    local potential                                         
   LCOR   =        T    correct aug charges                                     
   LPAW   =        T    paw PP                                                  
   EAUG   =  605.392                                                            
   DEXC   =    0.000                                                            
   RMAX   =    1.553    core radius for proj-oper                               
   RAUG   =    1.300    factor for augmentation sphere                          
   RDEP   =    1.550    radius for radial grids                                 
   RDEPT  =    1.329    core radius for aug-charge                              
                                                                                
   Atomic configuration                                                         
    4 entries                                                                   
     n  l   j            E        occ.                                          
     1  0  0.50      -514.6923   2.0000                                         
     2  0  0.50       -23.9615   2.0000                                         
     2  1  0.50        -9.0305   4.0000                                         
     3  2  1.50        -9.5241   0.0000                                         
   Description                                                                  
     l       E           TYP  RCUT    TYP  RCUT                                 
     0    -23.9615318     23  1.200                                             
     0     -9.5240782     23  1.200                                             
     1     -9.0304911     23  1.520                                             
     1      8.1634956     23  1.520                                             
     2     -9.5240782      7  1.500                                             
  local pseudopotential read in
  partial core-charges read in
  partial kinetic energy density read in
  kinetic energy density of atom read in
  atomic valenz-charges read in
  non local Contribution for L=           0  read in
    real space projection operators read in
  non local Contribution for L=           0  read in
    real space projection operators read in
  non local Contribution for L=           1  read in
    real space projection operators read in
  non local Contribution for L=           1  read in
    real space projection operators read in
    PAW grid and wavefunctions read in
 
   number of l-projection  operators is LMAX  =           4
   number of lm-projection operators is LMMAX =           8
 

 ----------------------------------------------------------------------------- 
|                                                                             |
|  ADVICE TO THIS USER RUNNING 'VASP/VAMP'   (HEAR YOUR MASTER'S VOICE ...):  |
|                                                                             |
|      You enforced a specific xc-type in the INCAR file,                     |
|      a different type was found on the POTCAR file                          |
|          I HOPE YOU KNOW, WHAT YOU ARE  DOING                               |
|                                                                             |
 ----------------------------------------------------------------------------- 

  PAW_PBE Co 02Aug2007                  :
 energy of atom  1       EATOM= -813.3670
 kinetic energy error for atom=    0.0005 (will be added to EATOM!!)
  PAW_PBE O 08Apr2002                   :
 energy of atom  2       EATOM= -432.3788
 kinetic energy error for atom=    0.0041 (will be added to EATOM!!)
 
 
 POSCAR: Surf-mp-714976                          
  positions in direct lattice
  velocities in cartesian coordinates
 exchange correlation table for  LEXCH =       42
   RHO(1)=    0.500       N(1)  =     2000
   RHO(2)=  100.500       N(2)  =     4000
 


--------------------------------------------------------------------------------------------------------


 ion  position               nearest neighbor table
   1  0.269  0.929  0.093-   3 1.88   3 1.88   3 1.88   2 1.88   2 1.88   2 1.88
   2  0.602  0.596  0.131-   1 1.88   1 1.88   1 1.88
   3  0.936  0.262  0.055-   1 1.88   1 1.88   1 1.88
 
  LATTYP: Found a hexagonal cell.
 ALAT       =     2.8175490415
 C/A-ratio  =     8.7138767199
  
  Lattice vectors:
  
 A1 = (   2.8175495632,   0.0000000000,   0.0000000000)
 A2 = (  -1.4087747816,   2.4400688958,   0.0000000000)
 A3 = (   0.0000000000,   0.0000000000,  24.5517750000)


Analysis of symmetry for initial positions (statically):
=====================================================================
 Subroutine PRICEL returns:
 Original cell was already a primitive cell.
 

 Routine SETGRP: Setting up the symmetry group for a 
 hexagonal supercell.


 Subroutine GETGRP returns: Found 12 space group operations
 (whereof  1 operations were pure point group operations)
 out of a pool of 24 trial point group operations.


The static configuration has the point symmetry C_1 .
 The point group associated with its full space group is D_3d.


Analysis of symmetry for dynamics (positions and initial velocities):
=====================================================================
 Subroutine PRICEL returns:
 Original cell was already a primitive cell.
 

 Routine SETGRP: Setting up the symmetry group for a 
 hexagonal supercell.


 Subroutine GETGRP returns: Found 12 space group operations
 (whereof  1 operations were pure point group operations)
 out of a pool of 24 trial point group operations.


The dynamic configuration has the point symmetry C_1 .
 The point group associated with its full space group is D_3d.


Analysis of magnetic symmetry:
=====================================================================
 Subroutine PRICEL returns:
 Original cell was already a primitive cell.
 

 Subroutine MAGSYM returns: Found 12 space group operations
 (whereof  1 operations were pure point group operations)
 out of a pool of 12 trial space group operations
 (whereof  1 operations were pure point group operations)
 and found also     1 'primitive' translations


The magnetic configuration has the point symmetry C_1 .
 The point group associated with its full space group is D_3d.
 
 
 KPOINTS: Automatic kpoint scheme                 

Automatic generation of k-mesh.
Space group operators:
 irot       det(A)        alpha          n_x          n_y          n_z        tau_x        tau_y        tau_z
    1     1.000000     0.000000     1.000000     0.000000     0.000000     0.000000     0.000000     0.000000
    2    -1.000000     0.000000     1.000000     0.000000     0.000000     0.538108     0.858024     0.185394
    3     1.000000   120.000000     0.000000     0.000000    -1.000000     0.198066     0.588970     0.000000
    4    -1.000000   120.000000     0.000000     0.000000    -1.000000     0.340042     0.269054     0.185394
    5     1.000000   120.000000     0.000000     0.000000     1.000000     0.609096     0.198066     0.000000
    6    -1.000000   120.000000     0.000000     0.000000     1.000000     0.929012     0.659958     0.185394
    7     1.000000   180.000000     1.000000     0.000000     0.000000     0.929012     0.858024     0.185394
    8    -1.000000   180.000000     1.000000     0.000000     0.000000     0.609096     0.000000     0.000000
    9     1.000000   180.000000     0.500000    -0.866025     0.000000     0.538108     0.269054     0.185394
   10    -1.000000   180.000000     0.500000    -0.866025     0.000000     0.000000     0.588970     0.000000
   11     1.000000   180.000000    -0.500000    -0.866025     0.000000     0.340042     0.659958     0.185394
   12    -1.000000   180.000000    -0.500000    -0.866025     0.000000     0.198066     0.198066     0.000000
 
 Subroutine IBZKPT returns following result:
 ===========================================
 
 Found     19 irreducible k-points:
 
 Following reciprocal coordinates:
            Coordinates               Weight
  0.000000  0.000000  0.000000      1.000000
  0.083333 -0.000000  0.000000      6.000000
  0.166667  0.000000  0.000000      6.000000
  0.250000 -0.000000  0.000000      6.000000
  0.333333  0.000000  0.000000      6.000000
  0.416667 -0.000000  0.000000      6.000000
  0.500000 -0.000000  0.000000      3.000000
  0.083333  0.083333  0.000000      6.000000
  0.166667  0.083333  0.000000     12.000000
  0.250000  0.083333  0.000000     12.000000
  0.333333  0.083333  0.000000     12.000000
  0.416667  0.083333  0.000000     12.000000
  0.166667  0.166667  0.000000      6.000000
  0.250000  0.166667  0.000000     12.000000
  0.333333  0.166667  0.000000     12.000000
  0.416667  0.166667  0.000000      6.000000
  0.250000  0.250000  0.000000      6.000000
  0.333333  0.250000  0.000000     12.000000
  0.333333  0.333333  0.000000      2.000000
 
 Following cartesian coordinates:
            Coordinates               Weight
  0.000000  0.000000  0.000000      1.000000
  0.029577  0.017076  0.000000      6.000000
  0.059153  0.034152  0.000000      6.000000
  0.088730  0.051228  0.000000      6.000000
  0.118306  0.068304  0.000000      6.000000
  0.147883  0.085380  0.000000      6.000000
  0.177459  0.102456  0.000000      3.000000
  0.029577  0.051228  0.000000      6.000000
  0.059153  0.068304  0.000000     12.000000
  0.088730  0.085380  0.000000     12.000000
  0.118306  0.102456  0.000000     12.000000
  0.147883  0.119532  0.000000     12.000000
  0.059153  0.102456  0.000000      6.000000
  0.088730  0.119532  0.000000     12.000000
  0.118306  0.136608  0.000000     12.000000
  0.147883  0.153684  0.000000      6.000000
  0.088730  0.153684  0.000000      6.000000
  0.118306  0.170760  0.000000     12.000000
  0.118306  0.204912  0.000000      2.000000
 


--------------------------------------------------------------------------------------------------------




 Dimension of arrays:
   k-points           NKPTS =     19   k-points in BZ     NKDIM =     19   number of bands    NBANDS=     16
   number of dos      NEDOS =   5000   number of ions     NIONS =      3
   non local maximal  LDIM  =      6   non local SUM 2l+1 LMDIM =     18
   total plane-waves  NPLWV = 188160
   max r-space proj   IRMAX =      1   max aug-charges    IRDMAX=  44158
   dimension x,y,z NGX =    28 NGY =   28 NGZ =  240
   dimension x,y,z NGXF=    56 NGYF=   56 NGZF=  480
   support grid    NGXF=    56 NGYF=   56 NGZF=  480
   ions per type =               1   2
 NGX,Y,Z   is equivalent  to a cutoff of  16.52, 16.52, 16.25 a.u.
 NGXF,Y,Z  is equivalent  to a cutoff of  33.04, 33.04, 32.50 a.u.


 I would recommend the setting:
   dimension x,y,z NGX =    26 NGY =   26 NGZ =  226
 SYSTEM =  unknown system                          
 POSCAR =  Surf-mp-714976                          

 Startparameter for this run:
   NWRITE =      2    write-flag & timer
   PREC   = accura    normal or accurate (medium, high low for compatibility)
   ISTART =      0    job   : 0-new  1-cont  2-samecut
   ICHARG =      2    charge: 1-file 2-atom 10-const
   ISPIN  =      2    spin polarized calculation?
   LNONCOLLINEAR =      F non collinear calculations
   LSORBIT =      F    spin-orbit coupling
   INIWAV =      1    electr: 0-lowe 1-rand  2-diag
   LASPH  =      F    aspherical Exc in radial PAW
   METAGGA=      F    non-selfconsistent MetaGGA calc.

 Electronic Relaxation 1
   ENCUT  =  800.0 eV  58.80 Ry    7.67 a.u.   6.50  6.50 56.62*2*pi/ulx,y,z
   ENINI  =  800.0     initial cutoff
   ENAUG  =  605.4 eV  augmentation charge cutoff
   NELM   =    500;   NELMIN=  2; NELMDL=  0     # of ELM steps 
   EDIFF  = 0.1E-06   stopping-criterion for ELM
   LREAL  =      F    real-space projection
   NLSPLINE    = F    spline interpolate recip. space projectors
   LCOMPAT=      F    compatible to vasp.4.4
   GGA_COMPAT  = T    GGA compatible to vasp.4.4-vasp.4.6
   LMAXPAW     = -100 max onsite density
   LMAXMIX     =    2 max onsite mixed and CHGCAR
   VOSKOWN=      0    Vosko Wilk Nusair interpolation
   ROPT   =    0.00000   0.00000
 Ionic relaxation
   EDIFFG = -.1E-02   stopping-criterion for IOM
   NSW    =    500    number of steps for IOM
   NBLOCK =      1;   KBLOCK =    500    inner block; outer block 
   IBRION =      1    ionic relax: 0-MD 1-quasi-New 2-CG
   NFREE  =      0    steps in history (QN), initial steepest desc. (CG)
   ISIF   =      3    stress and relaxation
   IWAVPR =     11    prediction:  0-non 1-charg 2-wave 3-comb
   ISYM   =      2    0-nonsym 1-usesym 2-fastsym
   LCORR  =      T    Harris-Foulkes like correction to forces

   POTIM  = 0.5000    time-step for ionic-motion
   TEIN   =    0.0    initial temperature
   TEBEG  =    0.0;   TEEND  =   0.0 temperature during run
   SMASS  =  -3.00    Nose mass-parameter (am)
   estimated Nose-frequenzy (Omega)   =  0.10E-29 period in steps =****** mass=  -0.181E-27a.u.
   SCALEE = 1.0000    scale energy and forces
   NPACO  =    256;   APACO  = 16.0  distance and # of slots for P.C.
   PSTRESS=    0.0 pullay stress

  Mass of Ions in am
   POMASS =  58.93 16.00
  Ionic Valenz
   ZVAL   =   9.00  6.00
  Atomic Wigner-Seitz radii
   RWIGS  =  -1.00 -1.00
  virtual crystal weights 
   VCA    =   1.00  1.00
   NELECT =      21.0000    total number of electrons
   NUPDOWN=      -1.0000    fix difference up-down

 DOS related values:
   EMIN   =  10.00;   EMAX   =-10.00  energy-range for DOS
   EFERMI =   0.00
   ISMEAR =     0;   SIGMA  =   0.20  broadening in eV -4-tet -1-fermi 0-gaus

 Electronic relaxation 2 (details)
   IALGO  =     38    algorithm
   LDIAG  =      T    sub-space diagonalisation (order eigenvalues)
   LSUBROT=      F    optimize rotation matrix (better conditioning)
   TURBO    =      0    0=normal 1=particle mesh
   IRESTART =      0    0=no restart 2=restart with 2 vectors
   NREBOOT  =      0    no. of reboots
   NMIN     =      0    reboot dimension
   EREF     =   0.00    reference energy to select bands
   IMIX   =      4    mixing-type and parameters
     AMIX     =   0.40;   BMIX     =  1.00
     AMIX_MAG =   1.60;   BMIX_MAG =  1.00
     AMIN     =   0.10
     WC   =   100.;   INIMIX=   1;  MIXPRE=   1;  MAXMIX= -45

 Intra band minimization:
   WEIMIN = 0.0010     energy-eigenvalue tresh-hold
   EBREAK =  0.16E-08  absolut break condition
   DEPER  =   0.30     relativ break condition  

   TIME   =   0.40     timestep for ELM

  volume/ion in A,a.u.               =      56.26       379.69
  Fermi-wavevector in a.u.,A,eV,Ry     =   0.817264  1.544405  9.087611  0.667921
  Thomas-Fermi vector in A             =   1.927681
 
 Write flags
   LWAVE  =      F    write WAVECAR
   LCHARG =      F    write CHGCAR
   LVTOT  =      F    write LOCPOT, total local potential
   LVHAR  =      T    write LOCPOT, Hartree potential only
   LELF   =      F    write electronic localiz. function (ELF)
   LORBIT =     11    0 simple, 1 ext, 2 COOP (PROOUT)


 Dipole corrections
   LMONO  =      F    monopole corrections only (constant potential shift)
   LDIPOL =      F    correct potential (dipole corrections)
   IDIPOL =      0    1-x, 2-y, 3-z, 4-all directions 
   EPSILON=  1.0000000 bulk dielectric constant

 Exchange correlation treatment:
   GGA     =    BO    GGA type
   LEXCH   =    42    internal setting for exchange type
   VOSKOWN=      0    Vosko Wilk Nusair interpolation
   LHFCALC =     F    Hartree Fock is set to
   LHFONE  =     F    Hartree Fock one center treatment
   AEXX    =    0.0000 exact exchange contribution

 vdW DFT:
   LUSE_VDW   =     T    switch on vdW DFT
   Zab_VDW    =-.8491    correlation parameter
   PARAM1     =0.1833
   PARAM2     =0.2200
   PARAM3     =0.0000

 Linear response parameters
   LEPSILON=     F    determine dielectric tensor
   LRPA    =     F    only Hartree local field effects (RPA)
   LNABLA  =     F    use nabla operator in PAW spheres
   LVEL    =     F    velocity operator in full k-point grid
   LINTERFAST=   F  fast interpolation
   KINTER  =     0    interpolate to denser k-point grid
   CSHIFT  =0.1000    complex shift for real part using Kramers Kronig
   OMEGAMAX=  -1.0    maximum frequency
   DEG_THRESHOLD= 0.2000000E-02 threshold for treating states as degnerate
   RTIME   =    0.100 relaxation time in fs

 Orbital magnetization related:
   ORBITALMAG=     F  switch on orbital magnetization
   LCHIMAG   =     F  perturbation theory with respect to B field
   DQ        =  0.001000  dq finite difference perturbation B field



--------------------------------------------------------------------------------------------------------


 quasi-Newton-method for relaxation of ions
 charge density and potential will be updated during run
 spin polarized calculation
 Variant of blocked Davidson
 Davidson routine will perform the subspace rotation
 perform sub-space diagonalisation
    after iterative eigenvector-optimisation
 modified Broyden-mixing scheme, WC =      100.0
 initial mixing is a Kerker type mixing with AMIX =  0.4000 and BMIX =      1.0000
 Hartree-type preconditioning will be used
 using additional bands            5
 reciprocal scheme for non local part
 use partial core corrections
 calculate Harris-corrections to forces 
   (improved forces if not selfconsistent)
 use gradient corrections 
 use of overlap-Matrix (Vanderbilt PP)
 Gauss-broadening in eV      SIGMA  =   0.20


--------------------------------------------------------------------------------------------------------


  energy-cutoff  :      800.00
  volume of cell :      168.79
      direct lattice vectors                 reciprocal lattice vectors
     2.817549563  0.000000000  0.000000000     0.354918335  0.204912247  0.000000000
    -1.408774782  2.440068896  0.000000000     0.000000000  0.409824494  0.000000000
     0.000000000  0.000000000 24.551775000     0.000000000  0.000000000  0.040730253

  length of vectors
     2.817549563  2.817549042 24.551775000     0.409824418  0.409824494  0.040730253


 
 k-points in units of 2pi/SCALE and weight: Automatic kpoint scheme                 
   0.00000000  0.00000000  0.00000000       0.007
   0.02957653  0.01707602  0.00000000       0.042
   0.05915306  0.03415204  0.00000000       0.042
   0.08872958  0.05122806  0.00000000       0.042
   0.11830611  0.06830408  0.00000000       0.042
   0.14788264  0.08538010  0.00000000       0.042
   0.17745917  0.10245612  0.00000000       0.021
   0.02957653  0.05122806  0.00000000       0.042
   0.05915306  0.06830408  0.00000000       0.083
   0.08872958  0.08538010  0.00000000       0.083
   0.11830611  0.10245612  0.00000000       0.083
   0.14788264  0.11953214  0.00000000       0.083
   0.05915306  0.10245612  0.00000000       0.042
   0.08872958  0.11953214  0.00000000       0.083
   0.11830611  0.13660816  0.00000000       0.083
   0.14788264  0.15368419  0.00000000       0.042
   0.08872958  0.15368419  0.00000000       0.042
   0.11830611  0.17076021  0.00000000       0.083
   0.11830611  0.20491225  0.00000000       0.014
 
 k-points in reciprocal lattice and weights: Automatic kpoint scheme                 
   0.00000000  0.00000000  0.00000000       0.007
   0.08333333 -0.00000000  0.00000000       0.042
   0.16666667  0.00000000  0.00000000       0.042
   0.25000000 -0.00000000  0.00000000       0.042
   0.33333333  0.00000000  0.00000000       0.042
   0.41666667 -0.00000000  0.00000000       0.042
   0.50000000 -0.00000000  0.00000000       0.021
   0.08333333  0.08333333  0.00000000       0.042
   0.16666667  0.08333333  0.00000000       0.083
   0.25000000  0.08333333  0.00000000       0.083
   0.33333333  0.08333333  0.00000000       0.083
   0.41666667  0.08333333  0.00000000       0.083
   0.16666667  0.16666667  0.00000000       0.042
   0.25000000  0.16666667  0.00000000       0.083
   0.33333333  0.16666667  0.00000000       0.083
   0.41666667  0.16666667  0.00000000       0.042
   0.25000000  0.25000000  0.00000000       0.042
   0.33333333  0.25000000  0.00000000       0.083
   0.33333333  0.33333333  0.00000000       0.014
 
 position of ions in fractional coordinates (direct lattice) 
   0.26905400  0.92901200  0.09269700
   0.60238700  0.59567900  0.13075615
   0.93572100  0.26234500  0.05463885
 
 position of ions in cartesian coordinates  (Angst):
  -0.55069570  2.26685329  2.27587589
   0.85807768  1.45349780  3.21029558
   2.26685527  0.64013987  1.34148074
 


--------------------------------------------------------------------------------------------------------


 k-point  1 :   0.0000 0.0000 0.0000  plane waves:    8729
 k-point  2 :   0.0833-0.0000 0.0000  plane waves:    8729
 k-point  3 :   0.1667 0.0000 0.0000  plane waves:    8727
 k-point  4 :   0.2500-0.0000 0.0000  plane waves:    8717
 k-point  5 :   0.3333 0.0000 0.0000  plane waves:    8689
 k-point  6 :   0.4167-0.0000 0.0000  plane waves:    8648
 k-point  7 :   0.5000-0.0000 0.0000  plane waves:    8610
 k-point  8 :   0.0833 0.0833 0.0000  plane waves:    8733
 k-point  9 :   0.1667 0.0833 0.0000  plane waves:    8728
 k-point 10 :   0.2500 0.0833 0.0000  plane waves:    8714
 k-point 11 :   0.3333 0.0833 0.0000  plane waves:    8645
 k-point 12 :   0.4167 0.0833 0.0000  plane waves:    8614
 k-point 13 :   0.1667 0.1667 0.0000  plane waves:    8695
 k-point 14 :   0.2500 0.1667 0.0000  plane waves:    8662
 k-point 15 :   0.3333 0.1667 0.0000  plane waves:    8637
 k-point 16 :   0.4167 0.1667 0.0000  plane waves:    8652
 k-point 17 :   0.2500 0.2500 0.0000  plane waves:    8628
 k-point 18 :   0.3333 0.2500 0.0000  plane waves:    8643
 k-point 19 :   0.3333 0.3333 0.0000  plane waves:    8652

 maximum and minimum number of plane-waves per node :      2198     2129

 maximum number of plane-waves:      8733
 maximum index in each direction: 
   IXMAX=    6   IYMAX=    6   IZMAX=   56
   IXMIN=   -6   IYMIN=   -6   IZMIN=  -56

 NGX is ok and might be reduce to  26
 NGY is ok and might be reduce to  26
 NGZ is ok and might be reduce to 226

 parallel 3D FFT for wavefunctions:
    minimum data exchange during FFTs selected (reduces bandwidth)
 parallel 3D FFT for charge:
    minimum data exchange during FFTs selected (reduces bandwidth)


 total amount of memory used by VASP on root node    56041. kBytes
========================================================================

   base      :      30000. kBytes
   nonl-proj :      12099. kBytes
   fftplans  :       3133. kBytes
   grid      :       8084. kBytes
   one-center:         31. kBytes
   wavefun   :       2694. kBytes
 
     INWAV:  cpu time    0.0000: real time    0.0000
 Broyden mixing: mesh for mixing (old mesh)
   NGX = 13   NGY = 13   NGZ =113
  (NGX  = 56   NGY  = 56   NGZ  =480)
  gives a total of  19097 points

 initial charge density was supplied:
 charge density of overlapping atoms calculated
 number of electron      21.0000000 magnetization       3.0000000
 keeping initial charge density in first step


--------------------------------------------------------------------------------------------------------


 Maximum index for augmentation-charges         1480 (set IRDMAX)


--------------------------------------------------------------------------------------------------------


 First call to EWALD:  gamma=   0.321
 Maximum number of real-space cells 6x 6x 1
 Maximum number of reciprocal cells 2x 2x11

 FEWALD executed in parallel
    FEWALD:  cpu time    0.0026: real time    0.0026


----------------------------------------- Iteration    1(   1)  ---------------------------------------


vdW kernel read from vdw_kernel.bindat
  0.0000  0.2424  0.5071  0.7962  1.1119  1.4567  1.8333  2.2446  2.6937  3.1842
  3.7199  4.3049  4.9438  5.6415  6.4036  7.2358  8.1446  9.1372 10.2212 11.4050
 12.6979 14.1099 15.6519 17.3360 19.1751 21.1837 23.3773 25.7729 28.3892 31.2465
 34.3669 37.7748 41.4965 45.5611 50.0000
 
    POTLOK:  cpu time    2.7003: real time    2.7110
    SETDIJ:  cpu time    0.0117: real time    0.0117
     EDDAV:  cpu time    1.5685: real time    1.5676
       DOS:  cpu time    0.0020: real time    0.0028
    --------------------------------------------
      LOOP:  cpu time    4.2860: real time    4.3218

 eigenvalue-minimisations  :  1216
 total energy-change (2. order) : 0.2155049E+03  (-0.9881672E+03)
 number of electron      21.0000000 magnetization       3.0000000
 augmentation part       21.0000000 magnetization       3.0000000

 Free energy of the ion-electron system (eV)
  ---------------------------------------------------
  alpha Z        PSCENC =        11.61788555
  Ewald energy   TEWEN  =      7999.23231025
  -Hartree energ DENC   =     -9485.88416467
  -exchange      EXHF   =         0.00000000
  -V(xc)+E(xc)   XCENC  =        71.34613640
  PAW double counting   =      1470.59076258    -1530.72500794
  entropy T*S    EENTRO =        -0.04549891
  eigenvalues    EBANDS =       -10.00340054
  atomic energy  EATOM  =      1689.37588947
  Solvation  Ediel_sol  =         0.00000000
  ---------------------------------------------------
  free energy    TOTEN  =       215.50491217 eV

  energy without entropy =      215.55041108  energy(sigma->0) =      215.52766163


--------------------------------------------------------------------------------------------------------




----------------------------------------- Iteration    1(   2)  ---------------------------------------


     EDDAV:  cpu time    2.1753: real time    2.1743
       DOS:  cpu time    0.0039: real time    0.0039
    --------------------------------------------
      LOOP:  cpu time    2.1812: real time    2.1870

 eigenvalue-minimisations  :  1592
 total energy-change (2. order) :-0.1967804E+03  (-0.1826062E+03)
 number of electron      21.0000000 magnetization       3.0000000
 augmentation part       21.0000000 magnetization       3.0000000

 Free energy of the ion-electron system (eV)
  ---------------------------------------------------
  alpha Z        PSCENC =        11.61788555
  Ewald energy   TEWEN  =      7999.23231025
  -Hartree energ DENC   =     -9485.88416467
  -exchange      EXHF   =         0.00000000
  -V(xc)+E(xc)   XCENC  =        71.34613640
  PAW double counting   =      1470.59076258    -1530.72500794
  entropy T*S    EENTRO =        -0.03011991
  eigenvalues    EBANDS =      -206.79914175
  atomic energy  EATOM  =      1689.37588947
  Solvation  Ediel_sol  =         0.00000000
  ---------------------------------------------------
  free energy    TOTEN  =        18.72454997 eV

  energy without entropy =       18.75466988  energy(sigma->0) =       18.73960993


--------------------------------------------------------------------------------------------------------




----------------------------------------- Iteration    1(   3)  ---------------------------------------


     EDDAV:  cpu time    2.1325: real time    2.1316
       DOS:  cpu time    0.0040: real time    0.0040
    --------------------------------------------
      LOOP:  cpu time    2.1386: real time    2.1426

 eigenvalue-minimisations  :  1536
 total energy-change (2. order) :-0.3895666E+02  (-0.3772208E+02)
 number of electron      21.0000000 magnetization       3.0000000
 augmentation part       21.0000000 magnetization       3.0000000

 Free energy of the ion-electron system (eV)
  ---------------------------------------------------
  alpha Z        PSCENC =        11.61788555
  Ewald energy   TEWEN  =      7999.23231025
  -Hartree energ DENC   =     -9485.88416467
  -exchange      EXHF   =         0.00000000
  -V(xc)+E(xc)   XCENC  =        71.34613640
  PAW double counting   =      1470.59076258    -1530.72500794
  entropy T*S    EENTRO =        -0.07977217
  eigenvalues    EBANDS =      -245.70615327
  atomic energy  EATOM  =      1689.37588947
  Solvation  Ediel_sol  =         0.00000000
  ---------------------------------------------------
  free energy    TOTEN  =       -20.23211381 eV

  energy without entropy =      -20.15234165  energy(sigma->0) =      -20.19222773


--------------------------------------------------------------------------------------------------------




----------------------------------------- Iteration    1(   4)  ---------------------------------------


     EDDAV:  cpu time    1.9785: real time    1.9769
       DOS:  cpu time    0.0030: real time    0.0030
    --------------------------------------------
      LOOP:  cpu time    1.9829: real time    1.9864

 eigenvalue-minimisations  :  1584
 total energy-change (2. order) :-0.1190676E+01  (-0.1183351E+01)
 number of electron      21.0000000 magnetization       3.0000000
 augmentation part       21.0000000 magnetization       3.0000000

 Free energy of the ion-electron system (eV)
  ---------------------------------------------------
  alpha Z        PSCENC =        11.61788555
  Ewald energy   TEWEN  =      7999.23231025
  -Hartree energ DENC   =     -9485.88416467
  -exchange      EXHF   =         0.00000000
  -V(xc)+E(xc)   XCENC  =        71.34613640
  PAW double counting   =      1470.59076258    -1530.72500794
  entropy T*S    EENTRO =        -0.07441464
  eigenvalues    EBANDS =      -246.90218707
  atomic energy  EATOM  =      1689.37588947
  Solvation  Ediel_sol  =         0.00000000
  ---------------------------------------------------
  free energy    TOTEN  =       -21.42279009 eV

  energy without entropy =      -21.34837544  energy(sigma->0) =      -21.38558276


--------------------------------------------------------------------------------------------------------




----------------------------------------- Iteration    1(   5)  ---------------------------------------


     EDDAV:  cpu time    2.0822: real time    2.0806
       DOS:  cpu time    0.0030: real time    0.0030
    CHARGE:  cpu time    0.1369: real time    0.1369
    MIXING:  cpu time    0.0024: real time    0.0024
    --------------------------------------------
      LOOP:  cpu time    2.2263: real time    2.2291

 eigenvalue-minimisations  :  1720
 total energy-change (2. order) :-0.2935127E-01  (-0.2934856E-01)
 number of electron      21.0000000 magnetization       2.8033049
 augmentation part        5.3891197 magnetization       2.5365226

 Broyden mixing:
  rms(total) = 0.28238E+01    rms(broyden)= 0.28238E+01
  rms(prec ) = 0.29271E+01
  weight for this iteration     100.00

 Free energy of the ion-electron system (eV)
  ---------------------------------------------------
  alpha Z        PSCENC =        11.61788555
  Ewald energy   TEWEN  =      7999.23231025
  -Hartree energ DENC   =     -9485.88416467
  -exchange      EXHF   =         0.00000000
  -V(xc)+E(xc)   XCENC  =        71.34613640
  PAW double counting   =      1470.59076258    -1530.72500794
  entropy T*S    EENTRO =        -0.07439503
  eigenvalues    EBANDS =      -246.93155795
  atomic energy  EATOM  =      1689.37588947
  Solvation  Ediel_sol  =         0.00000000
  ---------------------------------------------------
  free energy    TOTEN  =       -21.45214136 eV

  energy without entropy =      -21.37774632  energy(sigma->0) =      -21.41494384


--------------------------------------------------------------------------------------------------------




----------------------------------------- Iteration    1(   6)  ---------------------------------------


    POTLOK:  cpu time    2.6327: real time    2.6311
    SETDIJ:  cpu time    0.0118: real time    0.0118
     EDDAV:  cpu time    1.8713: real time    1.8706
       DOS:  cpu time    0.0037: real time    0.0037
    CHARGE:  cpu time    0.1179: real time    0.1178
    MIXING:  cpu time    0.0020: real time    0.0020
    --------------------------------------------
      LOOP:  cpu time    4.6423: real time    4.6436

 eigenvalue-minimisations  :  1520
 total energy-change (2. order) :-0.7264742E+01  (-0.7370496E+01)
 number of electron      20.9999999 magnetization       2.7308461
 augmentation part        8.0598091 magnetization       2.5356187

 Broyden mixing:
  rms(total) = 0.46704E+01    rms(broyden)= 0.46704E+01
  rms(prec ) = 0.48072E+01
  weight for this iteration     100.00

 eigenvalues of (default mixing * dielectric matrix)
  average eigenvalue GAMMA=   0.2943
  0.2943

 Free energy of the ion-electron system (eV)
  ---------------------------------------------------
  alpha Z        PSCENC =        11.61788555
  Ewald energy   TEWEN  =      7999.23231025
  -Hartree energ DENC   =     -9462.83334307
  -exchange      EXHF   =         0.00000000
  -V(xc)+E(xc)   XCENC  =        72.42862174
  PAW double counting   =      1652.67145532    -1699.94100421
  entropy T*S    EENTRO =        -0.03931876
  eigenvalues    EBANDS =      -291.22938010
  atomic energy  EATOM  =      1689.37588947
  Solvation  Ediel_sol  =         0.00000000
  ---------------------------------------------------
  free energy    TOTEN  =       -28.71688380 eV

  energy without entropy =      -28.67756504  energy(sigma->0) =      -28.69722442


--------------------------------------------------------------------------------------------------------




----------------------------------------- Iteration    1(   7)  ---------------------------------------


    POTLOK:  cpu time    2.2510: real time    2.2493
    SETDIJ:  cpu time    0.0118: real time    0.0118
     EDDAV:  cpu time    2.0189: real time    2.0181
       DOS:  cpu time    0.0031: real time    0.0031
    CHARGE:  cpu time    0.1171: real time    0.1170
    MIXING:  cpu time    0.0020: real time    0.0019
    --------------------------------------------
      LOOP:  cpu time    4.4064: real time    4.4069

 eigenvalue-minimisations  :  1672
 total energy-change (2. order) : 0.1553877E+02  (-0.1948630E+01)
 number of electron      21.0000000 magnetization       2.5725972
 augmentation part        6.5475527 magnetization       2.1465176

 Broyden mixing:
  rms(total) = 0.90377E+00    rms(broyden)= 0.90376E+00
  rms(prec ) = 0.93290E+00
  weight for this iteration     100.00

 eigenvalues of (default mixing * dielectric matrix)
  average eigenvalue GAMMA=   0.5975
  0.8309  0.3642

 Free energy of the ion-electron system (eV)
  ---------------------------------------------------
  alpha Z        PSCENC =        11.61788555
  Ewald energy   TEWEN  =      7999.23231025
  -Hartree energ DENC   =     -9476.13529017
  -exchange      EXHF   =         0.00000000
  -V(xc)+E(xc)   XCENC  =        72.16418867
  PAW double counting   =      1722.20298983    -1778.24449499
  entropy T*S    EENTRO =        -0.05374033
  eigenvalues    EBANDS =      -253.33785273
  atomic energy  EATOM  =      1689.37588947
  Solvation  Ediel_sol  =         0.00000000
  ---------------------------------------------------
  free energy    TOTEN  =       -13.17811446 eV

  energy without entropy =      -13.12437414  energy(sigma->0) =      -13.15124430


--------------------------------------------------------------------------------------------------------




----------------------------------------- Iteration    1(   8)  ---------------------------------------


    POTLOK:  cpu time    2.2518: real time    2.2501
    SETDIJ:  cpu time    0.0117: real time    0.0117
     EDDAV:  cpu time    2.1180: real time    2.1163
       DOS:  cpu time    0.0024: real time    0.0031
    CHARGE:  cpu time    0.1173: real time    0.1172
    MIXING:  cpu time    0.0020: real time    0.0020
    --------------------------------------------
      LOOP:  cpu time    4.5058: real time    4.5071

 eigenvalue-minimisations  :  1808
 total energy-change (2. order) :-0.9329666E-01  (-0.4697926E+00)
 number of electron      21.0000000 magnetization       2.3394472
 augmentation part        6.1475055 magnetization       2.0076429

 Broyden mixing:
  rms(total) = 0.53290E+00    rms(broyden)= 0.53290E+00
  rms(prec ) = 0.53884E+00
  weight for this iteration     100.00

 eigenvalues of (default mixing * dielectric matrix)
  average eigenvalue GAMMA=   0.7609
  1.3576  0.3764  0.5485

 Free energy of the ion-electron system (eV)
  ---------------------------------------------------
  alpha Z        PSCENC =        11.61788555
  Ewald energy   TEWEN  =      7999.23231025
  -Hartree energ DENC   =     -9474.59577079
  -exchange      EXHF   =         0.00000000
  -V(xc)+E(xc)   XCENC  =        71.61019299
  PAW double counting   =      1794.83560866    -1853.28943939
  entropy T*S    EENTRO =        -0.04318931
  eigenvalues    EBANDS =      -252.01489855
  atomic energy  EATOM  =      1689.37588947
  Solvation  Ediel_sol  =         0.00000000
  ---------------------------------------------------
  free energy    TOTEN  =       -13.27141113 eV

  energy without entropy =      -13.22822182  energy(sigma->0) =      -13.24981647


--------------------------------------------------------------------------------------------------------




----------------------------------------- Iteration    1(   9)  ---------------------------------------


    POTLOK:  cpu time    2.2452: real time    2.2434
    SETDIJ:  cpu time    0.0118: real time    0.0118
     EDDAV:  cpu time    2.0959: real time    2.0952
       DOS:  cpu time    0.0031: real time    0.0031
    CHARGE:  cpu time    0.1175: real time    0.1174
    MIXING:  cpu time    0.0020: real time    0.0020
    --------------------------------------------
      LOOP:  cpu time    4.4781: real time    4.4875

 eigenvalue-minimisations  :  1768
 total energy-change (2. order) :-0.6414210E-01  (-0.4665701E-01)
 number of electron      21.0000000 magnetization       2.1795007
 augmentation part        6.3482199 magnetization       1.8415361

 Broyden mixing:
  rms(total) = 0.29481E+00    rms(broyden)= 0.29481E+00
  rms(prec ) = 0.29876E+00
  weight for this iteration     100.00

 eigenvalues of (default mixing * dielectric matrix)
  average eigenvalue GAMMA=   0.9228
  2.0350  0.7633  0.3880  0.5048

 Free energy of the ion-electron system (eV)
  ---------------------------------------------------
  alpha Z        PSCENC =        11.61788555
  Ewald energy   TEWEN  =      7999.23231025
  -Hartree energ DENC   =     -9471.84193066
  -exchange      EXHF   =         0.00000000
  -V(xc)+E(xc)   XCENC  =        71.51098722
  PAW double counting   =      1900.29230069    -1959.13228252
  entropy T*S    EENTRO =        -0.04094646
  eigenvalues    EBANDS =      -254.34976676
  atomic energy  EATOM  =      1689.37588947
  Solvation  Ediel_sol  =         0.00000000
  ---------------------------------------------------
  free energy    TOTEN  =       -13.33555322 eV

  energy without entropy =      -13.29460677  energy(sigma->0) =      -13.31508000


--------------------------------------------------------------------------------------------------------




----------------------------------------- Iteration    1(  10)  ---------------------------------------


    POTLOK:  cpu time    2.2335: real time    2.2318
    SETDIJ:  cpu time    0.0118: real time    0.0118
     EDDAV:  cpu time    1.8502: real time    1.8487
       DOS:  cpu time    0.0031: real time    0.0031
    CHARGE:  cpu time    0.1173: real time    0.1172
    MIXING:  cpu time    0.0021: real time    0.0021
    --------------------------------------------
      LOOP:  cpu time    4.2199: real time    4.2208

 eigenvalue-minimisations  :  1496
 total energy-change (2. order) :-0.5206560E-01  (-0.8493384E-02)
 number of electron      21.0000000 magnetization       1.8995452
 augmentation part        6.2884288 magnetization       1.5723239

 Broyden mixing:
  rms(total) = 0.19516E+00    rms(broyden)= 0.19516E+00
  rms(prec ) = 0.19612E+00
  weight for this iteration     100.00

 eigenvalues of (default mixing * dielectric matrix)
  average eigenvalue GAMMA=   0.9891
  2.2442  1.0932  0.7370  0.3844  0.4868

 Free energy of the ion-electron system (eV)
  ---------------------------------------------------
  alpha Z        PSCENC =        11.61788555
  Ewald energy   TEWEN  =      7999.23231025
  -Hartree energ DENC   =     -9473.73968655
  -exchange      EXHF   =         0.00000000
  -V(xc)+E(xc)   XCENC  =        71.52660112
  PAW double counting   =      1940.76459600    -2000.45544723
  entropy T*S    EENTRO =        -0.04203095
  eigenvalues    EBANDS =      -251.66773646
  atomic energy  EATOM  =      1689.37588947
  Solvation  Ediel_sol  =         0.00000000
  ---------------------------------------------------
  free energy    TOTEN  =       -13.38761882 eV

  energy without entropy =      -13.34558787  energy(sigma->0) =      -13.36660334


--------------------------------------------------------------------------------------------------------




----------------------------------------- Iteration    1(  11)  ---------------------------------------


    POTLOK:  cpu time    2.2351: real time    2.2339
    SETDIJ:  cpu time    0.0118: real time    0.0118
     EDDAV:  cpu time    1.8594: real time    1.8579
       DOS:  cpu time    0.0031: real time    0.0031
    CHARGE:  cpu time    0.1171: real time    0.1170
    MIXING:  cpu time    0.0022: real time    0.0022
    --------------------------------------------
      LOOP:  cpu time    4.2311: real time    4.2339

 eigenvalue-minimisations  :  1512
 total energy-change (2. order) :-0.7860633E-01  (-0.1016729E-01)
 number of electron      21.0000000 magnetization       1.5323916
 augmentation part        6.1977018 magnetization       1.2191379

 Broyden mixing:
  rms(total) = 0.15639E+00    rms(broyden)= 0.15639E+00
  rms(prec ) = 0.16003E+00
  weight for this iteration     100.00

 eigenvalues of (default mixing * dielectric matrix)
  average eigenvalue GAMMA=   1.1886
  3.3635  1.3121  0.9335  0.3827  0.5365  0.6033

 Free energy of the ion-electron system (eV)
  ---------------------------------------------------
  alpha Z        PSCENC =        11.61788555
  Ewald energy   TEWEN  =      7999.23231025
  -Hartree energ DENC   =     -9476.73246626
  -exchange      EXHF   =         0.00000000
  -V(xc)+E(xc)   XCENC  =        71.54646031
  PAW double counting   =      1967.39129696    -2028.05388836
  entropy T*S    EENTRO =        -0.04385457
  eigenvalues    EBANDS =      -247.79985850
  atomic energy  EATOM  =      1689.37588947
  Solvation  Ediel_sol  =         0.00000000
  ---------------------------------------------------
  free energy    TOTEN  =       -13.46622515 eV

  energy without entropy =      -13.42237058  energy(sigma->0) =      -13.44429786


--------------------------------------------------------------------------------------------------------




----------------------------------------- Iteration    1(  12)  ---------------------------------------


    POTLOK:  cpu time    2.2321: real time    2.2304
    SETDIJ:  cpu time    0.0117: real time    0.0117
     EDDAV:  cpu time    1.8942: real time    1.8927
       DOS:  cpu time    0.0031: real time    0.0031
    CHARGE:  cpu time    0.1176: real time    0.1175
    MIXING:  cpu time    0.0022: real time    0.0022
    --------------------------------------------
      LOOP:  cpu time    4.2629: real time    4.2647

 eigenvalue-minimisations  :  1544
 total energy-change (2. order) :-0.6697110E-01  (-0.7966005E-02)
 number of electron      21.0000000 magnetization       1.1129224
 augmentation part        6.2634304 magnetization       0.8050346

 Broyden mixing:
  rms(total) = 0.12642E+00    rms(broyden)= 0.12642E+00
  rms(prec ) = 0.12732E+00
  weight for this iteration     100.00

 eigenvalues of (default mixing * dielectric matrix)
  average eigenvalue GAMMA=   1.5476
  5.2376  2.1001  1.0446  0.9354  0.3826  0.5665  0.5665

 Free energy of the ion-electron system (eV)
  ---------------------------------------------------
  alpha Z        PSCENC =        11.61788555
  Ewald energy   TEWEN  =      7999.23231025
  -Hartree energ DENC   =     -9477.33660118
  -exchange      EXHF   =         0.00000000
  -V(xc)+E(xc)   XCENC  =        71.53769576
  PAW double counting   =      2000.77220972    -2061.59436094
  entropy T*S    EENTRO =        -0.04458441
  eigenvalues    EBANDS =      -247.09364046
  atomic energy  EATOM  =      1689.37588947
  Solvation  Ediel_sol  =         0.00000000
  ---------------------------------------------------
  free energy    TOTEN  =       -13.53319625 eV

  energy without entropy =      -13.48861184  energy(sigma->0) =      -13.51090405


--------------------------------------------------------------------------------------------------------




----------------------------------------- Iteration    1(  13)  ---------------------------------------


    POTLOK:  cpu time    2.2340: real time    2.2328
    SETDIJ:  cpu time    0.0118: real time    0.0118
     EDDAV:  cpu time    1.6185: real time    1.6173
       DOS:  cpu time    0.0031: real time    0.0031
    CHARGE:  cpu time    0.1173: real time    0.1172
    MIXING:  cpu time    0.0023: real time    0.0023
    --------------------------------------------
      LOOP:  cpu time    3.9895: real time    3.9906

 eigenvalue-minimisations  :  1264
 total energy-change (2. order) :-0.4745234E-01  (-0.7670995E-02)
 number of electron      21.0000000 magnetization       0.9759810
 augmentation part        6.2685240 magnetization       0.6857161

 Broyden mixing:
  rms(total) = 0.88271E-01    rms(broyden)= 0.88271E-01
  rms(prec ) = 0.89573E-01
  weight for this iteration     100.00

 eigenvalues of (default mixing * dielectric matrix)
  average eigenvalue GAMMA=   1.8802
  7.9090  2.6074  1.0966  1.0966  0.3827  0.7970  0.5374  0.6145

 Free energy of the ion-electron system (eV)
  ---------------------------------------------------
  alpha Z        PSCENC =        11.61788555
  Ewald energy   TEWEN  =      7999.23231025
  -Hartree energ DENC   =     -9477.57599105
  -exchange      EXHF   =         0.00000000
  -V(xc)+E(xc)   XCENC  =        71.46260812
  PAW double counting   =      1972.87766363    -2033.22918016
  entropy T*S    EENTRO =        -0.04678401
  eigenvalues    EBANDS =      -247.29505039
  atomic energy  EATOM  =      1689.37588947
  Solvation  Ediel_sol  =         0.00000000
  ---------------------------------------------------
  free energy    TOTEN  =       -13.58064859 eV

  energy without entropy =      -13.53386459  energy(sigma->0) =      -13.55725659


--------------------------------------------------------------------------------------------------------




----------------------------------------- Iteration    1(  14)  ---------------------------------------


    POTLOK:  cpu time    2.2339: real time    2.2322
    SETDIJ:  cpu time    0.0118: real time    0.0118
     EDDAV:  cpu time    1.9399: real time    1.9390
       DOS:  cpu time    0.0031: real time    0.0031
    CHARGE:  cpu time    0.1171: real time    0.1170
    MIXING:  cpu time    0.0024: real time    0.0024
    --------------------------------------------
      LOOP:  cpu time    4.3108: real time    4.3118

 eigenvalue-minimisations  :  1592
 total energy-change (2. order) :-0.1030510E-01  (-0.7129858E-03)
 number of electron      21.0000000 magnetization       0.9473237
 augmentation part        6.2415203 magnetization       0.6633135

 Broyden mixing:
  rms(total) = 0.41980E-01    rms(broyden)= 0.41979E-01
  rms(prec ) = 0.42398E-01
  weight for this iteration     100.00

 eigenvalues of (default mixing * dielectric matrix)
  average eigenvalue GAMMA=   2.0320
 10.0701  2.5798  1.2109  1.2109  0.3827  0.9546  0.5384  0.6063  0.7345

 Free energy of the ion-electron system (eV)
  ---------------------------------------------------
  alpha Z        PSCENC =        11.61788555
  Ewald energy   TEWEN  =      7999.23231025
  -Hartree energ DENC   =     -9477.64875946
  -exchange      EXHF   =         0.00000000
  -V(xc)+E(xc)   XCENC  =        71.43300595
  PAW double counting   =      1960.22237155    -2020.51385802
  entropy T*S    EENTRO =        -0.04714756
  eigenvalues    EBANDS =      -247.26265142
  atomic energy  EATOM  =      1689.37588947
  Solvation  Ediel_sol  =         0.00000000
  ---------------------------------------------------
  free energy    TOTEN  =       -13.59095369 eV

  energy without entropy =      -13.54380614  energy(sigma->0) =      -13.56737992


--------------------------------------------------------------------------------------------------------




----------------------------------------- Iteration    1(  15)  ---------------------------------------


    POTLOK:  cpu time    2.2342: real time    2.2331
    SETDIJ:  cpu time    0.0119: real time    0.0119
     EDDAV:  cpu time    2.1644: real time    2.1627
       DOS:  cpu time    0.0031: real time    0.0031
    CHARGE:  cpu time    0.1174: real time    0.1173
    MIXING:  cpu time    0.0025: real time    0.0025
    --------------------------------------------
      LOOP:  cpu time    4.5359: real time    4.5369

 eigenvalue-minimisations  :  1832
 total energy-change (2. order) : 0.3672330E-02  (-0.2332979E-03)
 number of electron      21.0000000 magnetization       0.9430445
 augmentation part        6.2545348 magnetization       0.6598076

 Broyden mixing:
  rms(total) = 0.32445E-01    rms(broyden)= 0.32445E-01
  rms(prec ) = 0.32521E-01
  weight for this iteration     100.00

 eigenvalues of (default mixing * dielectric matrix)
  average eigenvalue GAMMA=   2.0032
 10.3621  2.6404  1.6753  1.3831  0.3827  0.9087  0.9087  0.5325  0.6194  0.6194

 Free energy of the ion-electron system (eV)
  ---------------------------------------------------
  alpha Z        PSCENC =        11.61788555
  Ewald energy   TEWEN  =      7999.23231025
  -Hartree energ DENC   =     -9477.30875448
  -exchange      EXHF   =         0.00000000
  -V(xc)+E(xc)   XCENC  =        71.42958949
  PAW double counting   =      1962.39392333    -2022.66415563
  entropy T*S    EENTRO =        -0.04714335
  eigenvalues    EBANDS =      -247.61682600
  atomic energy  EATOM  =      1689.37588947
  Solvation  Ediel_sol  =         0.00000000
  ---------------------------------------------------
  free energy    TOTEN  =       -13.58728136 eV

  energy without entropy =      -13.54013802  energy(sigma->0) =      -13.56370969


--------------------------------------------------------------------------------------------------------




----------------------------------------- Iteration    1(  16)  ---------------------------------------


    POTLOK:  cpu time    2.2391: real time    2.2379
    SETDIJ:  cpu time    0.0117: real time    0.0117
     EDDAV:  cpu time    1.8225: real time    1.8212
       DOS:  cpu time    0.0031: real time    0.0031
    CHARGE:  cpu time    0.1631: real time    0.1630
    MIXING:  cpu time    0.0029: real time    0.0029
    --------------------------------------------
      LOOP:  cpu time    4.2449: real time    4.2481

 eigenvalue-minimisations  :  1416
 total energy-change (2. order) : 0.1237938E-03  (-0.3397954E-04)
 number of electron      21.0000000 magnetization       0.9429028
 augmentation part        6.2513294 magnetization       0.6590452

 Broyden mixing:
  rms(total) = 0.14078E-01    rms(broyden)= 0.14078E-01
  rms(prec ) = 0.14100E-01
  weight for this iteration     100.00

 eigenvalues of (default mixing * dielectric matrix)
  average eigenvalue GAMMA=   1.9588
 10.4492  2.8513  2.2230  1.2390  0.3827  0.9479  0.8979  0.5357  0.6144  0.7026
  0.7026

 Free energy of the ion-electron system (eV)
  ---------------------------------------------------
  alpha Z        PSCENC =        11.61788555
  Ewald energy   TEWEN  =      7999.23231025
  -Hartree energ DENC   =     -9477.21933856
  -exchange      EXHF   =         0.00000000
  -V(xc)+E(xc)   XCENC  =        71.43034502
  PAW double counting   =      1961.56670938    -2021.85536307
  entropy T*S    EENTRO =        -0.04706046
  eigenvalues    EBANDS =      -247.68853514
  atomic energy  EATOM  =      1689.37588947
  Solvation  Ediel_sol  =         0.00000000
  ---------------------------------------------------
  free energy    TOTEN  =       -13.58715757 eV

  energy without entropy =      -13.54009711  energy(sigma->0) =      -13.56362734


--------------------------------------------------------------------------------------------------------




----------------------------------------- Iteration    1(  17)  ---------------------------------------


    POTLOK:  cpu time    2.3629: real time    2.3611
    SETDIJ:  cpu time    0.0118: real time    0.0118
     EDDAV:  cpu time    1.8042: real time    1.8029
       DOS:  cpu time    0.0031: real time    0.0031
    CHARGE:  cpu time    0.1170: real time    0.1169
    MIXING:  cpu time    0.0027: real time    0.0027
    --------------------------------------------
      LOOP:  cpu time    4.3036: real time    4.3046

 eigenvalue-minimisations  :  1464
 total energy-change (2. order) : 0.5297992E-03  (-0.9020644E-05)
 number of electron      21.0000000 magnetization       0.9425093
 augmentation part        6.2514969 magnetization       0.6585083

 Broyden mixing:
  rms(total) = 0.84966E-02    rms(broyden)= 0.84966E-02
  rms(prec ) = 0.85079E-02
  weight for this iteration     100.00

 eigenvalues of (default mixing * dielectric matrix)
  average eigenvalue GAMMA=   1.9424
 10.4752  2.9865  2.2561  1.5861  1.1161  1.1161  0.3827  0.8990  0.7216  0.5343
  0.6172  0.6172

 Free energy of the ion-electron system (eV)
  ---------------------------------------------------
  alpha Z        PSCENC =        11.61788555
  Ewald energy   TEWEN  =      7999.23231025
  -Hartree energ DENC   =     -9477.13423592
  -exchange      EXHF   =         0.00000000
  -V(xc)+E(xc)   XCENC  =        71.42801358
  PAW double counting   =      1961.29196974    -2021.57368788
  entropy T*S    EENTRO =        -0.04703280
  eigenvalues    EBANDS =      -247.77773977
  atomic energy  EATOM  =      1689.37588947
  Solvation  Ediel_sol  =         0.00000000
  ---------------------------------------------------
  free energy    TOTEN  =       -13.58662777 eV

  energy without entropy =      -13.53959497  energy(sigma->0) =      -13.56311137


--------------------------------------------------------------------------------------------------------




----------------------------------------- Iteration    1(  18)  ---------------------------------------


    POTLOK:  cpu time    2.2378: real time    2.2361
    SETDIJ:  cpu time    0.0117: real time    0.0117
     EDDAV:  cpu time    1.6827: real time    1.6814
       DOS:  cpu time    0.0031: real time    0.0031
    CHARGE:  cpu time    0.1170: real time    0.1199
    MIXING:  cpu time    0.0028: real time    0.0028
    --------------------------------------------
      LOOP:  cpu time    4.0569: real time    4.0627

 eigenvalue-minimisations  :  1320
 total energy-change (2. order) : 0.3243737E-03  (-0.6881179E-05)
 number of electron      21.0000000 magnetization       0.9427687
 augmentation part        6.2516624 magnetization       0.6585075

 Broyden mixing:
  rms(total) = 0.38734E-02    rms(broyden)= 0.38734E-02
  rms(prec ) = 0.38808E-02
  weight for this iteration     100.00

 eigenvalues of (default mixing * dielectric matrix)
  average eigenvalue GAMMA=   1.8774
 10.4635  3.0889  2.2714  1.8260  1.1410  1.1410  0.3827  0.8493  0.8493  0.5353
  0.6332  0.6332  0.5920

 Free energy of the ion-electron system (eV)
  ---------------------------------------------------
  alpha Z        PSCENC =        11.61788555
  Ewald energy   TEWEN  =      7999.23231025
  -Hartree energ DENC   =     -9477.06421728
  -exchange      EXHF   =         0.00000000
  -V(xc)+E(xc)   XCENC  =        71.42609920
  PAW double counting   =      1960.93197237    -2021.20418296
  entropy T*S    EENTRO =        -0.04697191
  eigenvalues    EBANDS =      -247.85508809
  atomic energy  EATOM  =      1689.37588947
  Solvation  Ediel_sol  =         0.00000000
  ---------------------------------------------------
  free energy    TOTEN  =       -13.58630340 eV

  energy without entropy =      -13.53933149  energy(sigma->0) =      -13.56281744


--------------------------------------------------------------------------------------------------------




----------------------------------------- Iteration    1(  19)  ---------------------------------------


    POTLOK:  cpu time    2.2438: real time    2.2420
    SETDIJ:  cpu time    0.0119: real time    0.0119
     EDDAV:  cpu time    1.8891: real time    1.8876
       DOS:  cpu time    0.0031: real time    0.0031
    CHARGE:  cpu time    0.1171: real time    0.1170
    MIXING:  cpu time    0.0022: real time    0.0030
    --------------------------------------------
      LOOP:  cpu time    4.2698: real time    4.2709

 eigenvalue-minimisations  :  1552
 total energy-change (2. order) : 0.5114125E-04  (-0.1068849E-05)
 number of electron      21.0000000 magnetization       0.9426878
 augmentation part        6.2514915 magnetization       0.6583212

 Broyden mixing:
  rms(total) = 0.20696E-02    rms(broyden)= 0.20696E-02
  rms(prec ) = 0.20775E-02
  weight for this iteration     100.00

 eigenvalues of (default mixing * dielectric matrix)
  average eigenvalue GAMMA=   1.8660
 10.4456  3.3567  2.4719  1.9692  1.2150  1.2150  0.3827  0.9006  0.9006  0.8096
  0.5347  0.6772  0.6225  0.6225

 Free energy of the ion-electron system (eV)
  ---------------------------------------------------
  alpha Z        PSCENC =        11.61788555
  Ewald energy   TEWEN  =      7999.23231025
  -Hartree energ DENC   =     -9477.03536330
  -exchange      EXHF   =         0.00000000
  -V(xc)+E(xc)   XCENC  =        71.42615906
  PAW double counting   =      1960.82541494    -2021.09786811
  entropy T*S    EENTRO =        -0.04694621
  eigenvalues    EBANDS =      -247.88373391
  atomic energy  EATOM  =      1689.37588947
  Solvation  Ediel_sol  =         0.00000000
  ---------------------------------------------------
  free energy    TOTEN  =       -13.58625226 eV

  energy without entropy =      -13.53930605  energy(sigma->0) =      -13.56277915


--------------------------------------------------------------------------------------------------------




----------------------------------------- Iteration    1(  20)  ---------------------------------------


    POTLOK:  cpu time    2.2364: real time    2.2347
    SETDIJ:  cpu time    0.0118: real time    0.0118
     EDDAV:  cpu time    1.7411: real time    1.7404
       DOS:  cpu time    0.0031: real time    0.0031
    CHARGE:  cpu time    0.1178: real time    0.1177
    MIXING:  cpu time    0.0030: real time    0.0030
    --------------------------------------------
      LOOP:  cpu time    4.1160: real time    4.1267

 eigenvalue-minimisations  :  1384
 total energy-change (2. order) : 0.5221515E-04  (-0.7601682E-06)
 number of electron      21.0000000 magnetization       0.9419440
 augmentation part        6.2515774 magnetization       0.6574913

 Broyden mixing:
  rms(total) = 0.70882E-03    rms(broyden)= 0.70882E-03
  rms(prec ) = 0.72105E-03
  weight for this iteration     100.00

 eigenvalues of (default mixing * dielectric matrix)
  average eigenvalue GAMMA=   1.8763
 10.4327  3.7042  2.6324  2.1293  1.5398  1.1322  1.1322  0.3827  0.9387  0.9387
  0.7631  0.5348  0.6374  0.6374  0.6090

 Free energy of the ion-electron system (eV)
  ---------------------------------------------------
  alpha Z        PSCENC =        11.61788555
  Ewald energy   TEWEN  =      7999.23231025
  -Hartree energ DENC   =     -9476.99515514
  -exchange      EXHF   =         0.00000000
  -V(xc)+E(xc)   XCENC  =        71.42606855
  PAW double counting   =      1960.75864692    -2021.03033141
  entropy T*S    EENTRO =        -0.04692421
  eigenvalues    EBANDS =      -247.92459003
  atomic energy  EATOM  =      1689.37588947
  Solvation  Ediel_sol  =         0.00000000
  ---------------------------------------------------
  free energy    TOTEN  =       -13.58620004 eV

  energy without entropy =      -13.53927583  energy(sigma->0) =      -13.56273793


--------------------------------------------------------------------------------------------------------




----------------------------------------- Iteration    1(  21)  ---------------------------------------


    POTLOK:  cpu time    2.2351: real time    2.2340
    SETDIJ:  cpu time    0.0118: real time    0.0118
     EDDAV:  cpu time    1.7672: real time    1.7659
       DOS:  cpu time    0.0031: real time    0.0031
    CHARGE:  cpu time    0.1169: real time    0.1168
    MIXING:  cpu time    0.0031: real time    0.0031
    --------------------------------------------
      LOOP:  cpu time    4.1396: real time    4.1420

 eigenvalue-minimisations  :  1424
 total energy-change (2. order) : 0.5596804E-04  (-0.1074082E-05)
 number of electron      21.0000000 magnetization       0.9412185
 augmentation part        6.2516609 magnetization       0.6567282

 Broyden mixing:
  rms(total) = 0.77100E-03    rms(broyden)= 0.77099E-03
  rms(prec ) = 0.77448E-03
  weight for this iteration     100.00

 eigenvalues of (default mixing * dielectric matrix)
  average eigenvalue GAMMA=   1.8519
 10.4332  3.8432  2.7433  2.2925  1.6325  1.2124  1.2124  0.3827  0.9656  0.9656
  0.8616  0.5348  0.6779  0.6353  0.6353  0.6028

 Free energy of the ion-electron system (eV)
  ---------------------------------------------------
  alpha Z        PSCENC =        11.61788555
  Ewald energy   TEWEN  =      7999.23231025
  -Hartree energ DENC   =     -9476.92791372
  -exchange      EXHF   =         0.00000000
  -V(xc)+E(xc)   XCENC  =        71.42561046
  PAW double counting   =      1960.60817980    -2020.87722107
  entropy T*S    EENTRO =        -0.04691023
  eigenvalues    EBANDS =      -247.99397459
  atomic energy  EATOM  =      1689.37588947
  Solvation  Ediel_sol  =         0.00000000
  ---------------------------------------------------
  free energy    TOTEN  =       -13.58614407 eV

  energy without entropy =      -13.53923385  energy(sigma->0) =      -13.56268896


--------------------------------------------------------------------------------------------------------




----------------------------------------- Iteration    1(  22)  ---------------------------------------


    POTLOK:  cpu time    2.2367: real time    2.2356
    SETDIJ:  cpu time    0.0117: real time    0.0117
     EDDAV:  cpu time    1.8157: real time    1.8143
       DOS:  cpu time    0.0031: real time    0.0031
    CHARGE:  cpu time    0.1164: real time    0.1171
    MIXING:  cpu time    0.0032: real time    0.0032
    --------------------------------------------
      LOOP:  cpu time    4.1901: real time    4.1917

 eigenvalue-minimisations  :  1472
 total energy-change (2. order) :-0.1504314E-04  (-0.2123197E-06)
 number of electron      21.0000000 magnetization       0.9400910
 augmentation part        6.2515854 magnetization       0.6555966

 Broyden mixing:
  rms(total) = 0.80481E-03    rms(broyden)= 0.80481E-03
  rms(prec ) = 0.80648E-03
  weight for this iteration     100.00

 eigenvalues of (default mixing * dielectric matrix)
  average eigenvalue GAMMA=   1.9440
 10.4258  5.1641  3.1818  2.4582  1.9487  1.2188  1.2188  1.1143  1.1143  0.3827
  0.9090  0.8296  0.5347  0.6175  0.6175  0.6557  0.6557

 Free energy of the ion-electron system (eV)
  ---------------------------------------------------
  alpha Z        PSCENC =        11.61788555
  Ewald energy   TEWEN  =      7999.23231025
  -Hartree energ DENC   =     -9476.90217934
  -exchange      EXHF   =         0.00000000
  -V(xc)+E(xc)   XCENC  =        71.42541875
  PAW double counting   =      1960.57339870    -2020.84229856
  entropy T*S    EENTRO =        -0.04691070
  eigenvalues    EBANDS =      -248.01967323
  atomic energy  EATOM  =      1689.37588947
  Solvation  Ediel_sol  =         0.00000000
  ---------------------------------------------------
  free energy    TOTEN  =       -13.58615912 eV

  energy without entropy =      -13.53924841  energy(sigma->0) =      -13.56270376


--------------------------------------------------------------------------------------------------------




----------------------------------------- Iteration    1(  23)  ---------------------------------------


    POTLOK:  cpu time    2.2400: real time    2.2383
    SETDIJ:  cpu time    0.0117: real time    0.0117
     EDDAV:  cpu time    1.7816: real time    1.7803
       DOS:  cpu time    0.0031: real time    0.0031
    CHARGE:  cpu time    0.1172: real time    0.1171
    MIXING:  cpu time    0.0033: real time    0.0033
    --------------------------------------------
      LOOP:  cpu time    4.1596: real time    4.1605

 eigenvalue-minimisations  :  1448
 total energy-change (2. order) :-0.1085787E-04  (-0.2897887E-06)
 number of electron      21.0000000 magnetization       0.9395018
 augmentation part        6.2515624 magnetization       0.6550167

 Broyden mixing:
  rms(total) = 0.60232E-03    rms(broyden)= 0.60232E-03
  rms(prec ) = 0.60410E-03
  weight for this iteration     100.00

 eigenvalues of (default mixing * dielectric matrix)
  average eigenvalue GAMMA=   2.0763
 10.4271  7.6999  3.4513  2.5073  2.2077  1.5639  1.1644  1.1644  1.1571  0.3827
  0.9028  0.9028  0.5348  0.7541  0.6072  0.6256  0.6256  0.6951

 Free energy of the ion-electron system (eV)
  ---------------------------------------------------
  alpha Z        PSCENC =        11.61788555
  Ewald energy   TEWEN  =      7999.23231025
  -Hartree energ DENC   =     -9476.86418360
  -exchange      EXHF   =         0.00000000
  -V(xc)+E(xc)   XCENC  =        71.42527630
  PAW double counting   =      1960.58005237    -2020.84931716
  entropy T*S    EENTRO =        -0.04691561
  eigenvalues    EBANDS =      -248.05716753
  atomic energy  EATOM  =      1689.37588947
  Solvation  Ediel_sol  =         0.00000000
  ---------------------------------------------------
  free energy    TOTEN  =       -13.58616997 eV

  energy without entropy =      -13.53925436  energy(sigma->0) =      -13.56271217


--------------------------------------------------------------------------------------------------------




----------------------------------------- Iteration    1(  24)  ---------------------------------------


    POTLOK:  cpu time    2.2375: real time    2.2363
    SETDIJ:  cpu time    0.0116: real time    0.0116
     EDDAV:  cpu time    1.6995: real time    1.6982
       DOS:  cpu time    0.0031: real time    0.0031
    CHARGE:  cpu time    0.1171: real time    0.1170
    MIXING:  cpu time    0.0027: real time    0.0034
    --------------------------------------------
      LOOP:  cpu time    4.0740: real time    4.0755

 eigenvalue-minimisations  :  1408
 total energy-change (2. order) : 0.9721034E-05  (-0.3167159E-06)
 number of electron      21.0000000 magnetization       0.9393512
 augmentation part        6.2515816 magnetization       0.6548863

 Broyden mixing:
  rms(total) = 0.22233E-03    rms(broyden)= 0.22233E-03
  rms(prec ) = 0.22394E-03
  weight for this iteration     100.00

 eigenvalues of (default mixing * dielectric matrix)
  average eigenvalue GAMMA=   2.1082
 10.4335  8.9814  3.5437  2.5390  2.3442  1.6497  1.4244  1.1350  1.1350  0.3827
  0.9324  0.9324  0.8570  0.7396  0.5348  0.6405  0.6405  0.6161  0.5950

 Free energy of the ion-electron system (eV)
  ---------------------------------------------------
  alpha Z        PSCENC =        11.61788555
  Ewald energy   TEWEN  =      7999.23231025
  -Hartree energ DENC   =     -9476.85353071
  -exchange      EXHF   =         0.00000000
  -V(xc)+E(xc)   XCENC  =        71.42527814
  PAW double counting   =      1960.63316150    -2020.90311728
  entropy T*S    EENTRO =        -0.04691981
  eigenvalues    EBANDS =      -248.06711734
  atomic energy  EATOM  =      1689.37588947
  Solvation  Ediel_sol  =         0.00000000
  ---------------------------------------------------
  free energy    TOTEN  =       -13.58616025 eV

  energy without entropy =      -13.53924044  energy(sigma->0) =      -13.56270035


--------------------------------------------------------------------------------------------------------




----------------------------------------- Iteration    1(  25)  ---------------------------------------


    POTLOK:  cpu time    2.2367: real time    2.2350
    SETDIJ:  cpu time    0.0118: real time    0.0118
     EDDAV:  cpu time    1.5409: real time    1.5397
       DOS:  cpu time    0.0031: real time    0.0032
    CHARGE:  cpu time    0.1166: real time    0.1166
    MIXING:  cpu time    0.0028: real time    0.0036
    --------------------------------------------
      LOOP:  cpu time    3.9148: real time    3.9162

 eigenvalue-minimisations  :  1240
 total energy-change (2. order) : 0.6401428E-05  (-0.3218191E-06)
 number of electron      21.0000000 magnetization       0.9392665
 augmentation part        6.2515819 magnetization       0.6548141

 Broyden mixing:
  rms(total) = 0.78752E-04    rms(broyden)= 0.78751E-04
  rms(prec ) = 0.80814E-04
  weight for this iteration     100.00

 eigenvalues of (default mixing * dielectric matrix)
  average eigenvalue GAMMA=   2.1128
 10.4552  9.5006  3.7045  2.6544  2.4288  1.8215  1.5298  1.1904  1.1904  0.3827
  0.9764  0.9764  0.8523  0.8523  0.5348  0.7094  0.6396  0.6396  0.6181  0.5993

 Free energy of the ion-electron system (eV)
  ---------------------------------------------------
  alpha Z        PSCENC =        11.61788555
  Ewald energy   TEWEN  =      7999.23231025
  -Hartree energ DENC   =     -9476.85219138
  -exchange      EXHF   =         0.00000000
  -V(xc)+E(xc)   XCENC  =        71.42531197
  PAW double counting   =      1960.65454072    -2020.92481829
  entropy T*S    EENTRO =        -0.04692131
  eigenvalues    EBANDS =      -248.06816082
  atomic energy  EATOM  =      1689.37588947
  Solvation  Ediel_sol  =         0.00000000
  ---------------------------------------------------
  free energy    TOTEN  =       -13.58615385 eV

  energy without entropy =      -13.53923254  energy(sigma->0) =      -13.56269320


--------------------------------------------------------------------------------------------------------




----------------------------------------- Iteration    1(  26)  ---------------------------------------


    POTLOK:  cpu time    2.2367: real time    2.2355
    SETDIJ:  cpu time    0.0118: real time    0.0118
     EDDAV:  cpu time    1.7878: real time    1.7865
       DOS:  cpu time    0.0024: real time    0.0031
    CHARGE:  cpu time    0.1169: real time    0.1168
    MIXING:  cpu time    0.0030: real time    0.0037
    --------------------------------------------
      LOOP:  cpu time    4.1626: real time    4.2482

 eigenvalue-minimisations  :  1440
 total energy-change (2. order) :-0.8662390E-05  (-0.2939081E-06)
 number of electron      21.0000000 magnetization       0.9392468
 augmentation part        6.2515949 magnetization       0.6547982

 Broyden mixing:
  rms(total) = 0.37876E-04    rms(broyden)= 0.37875E-04
  rms(prec ) = 0.39858E-04
  weight for this iteration     100.00

 eigenvalues of (default mixing * dielectric matrix)
  average eigenvalue GAMMA=   2.0938
 10.4596  9.8024  3.6437  2.7667  2.4063  1.9578  1.6968  1.2341  1.2341  0.3827
  1.1096  0.9507  0.9507  0.8159  0.8159  0.5348  0.7042  0.6390  0.6390  0.6050
  0.6208

 Free energy of the ion-electron system (eV)
  ---------------------------------------------------
  alpha Z        PSCENC =        11.61788555
  Ewald energy   TEWEN  =      7999.23231025
  -Hartree energ DENC   =     -9476.85196704
  -exchange      EXHF   =         0.00000000
  -V(xc)+E(xc)   XCENC  =        71.42531573
  PAW double counting   =      1960.66799985    -2020.93837988
  entropy T*S    EENTRO =        -0.04692234
  eigenvalues    EBANDS =      -248.06829410
  atomic energy  EATOM  =      1689.37588947
  Solvation  Ediel_sol  =         0.00000000
  ---------------------------------------------------
  free energy    TOTEN  =       -13.58616251 eV

  energy without entropy =      -13.53924018  energy(sigma->0) =      -13.56270135


--------------------------------------------------------------------------------------------------------




----------------------------------------- Iteration    1(  27)  ---------------------------------------


    POTLOK:  cpu time    2.2400: real time    2.2383
    SETDIJ:  cpu time    0.0117: real time    0.0117
     EDDAV:  cpu time    1.5281: real time    1.5269
       DOS:  cpu time    0.0031: real time    0.0031
    CHARGE:  cpu time    0.1169: real time    0.1168
    MIXING:  cpu time    0.0038: real time    0.0038
    --------------------------------------------
      LOOP:  cpu time    3.9055: real time    3.9068

 eigenvalue-minimisations  :  1232
 total energy-change (2. order) : 0.7881796E-05  (-0.2712308E-06)
 number of electron      21.0000000 magnetization       0.9392129
 augmentation part        6.2515853 magnetization       0.6547650

 Broyden mixing:
  rms(total) = 0.25548E-04    rms(broyden)= 0.25548E-04
[...]
      7      -9.0442      1.00000
      8      -7.9244      1.00000
      9      -6.6736      1.00000
     10      -6.5940      0.99997
     11      -6.0545      0.58313
     12      -3.8180      0.00000
     13      -3.4014      0.00000
     14       5.0873      0.00000
     15       5.3448      0.00000
     16       5.8115      0.00000

 k-point    13 :       0.1667    0.1667    0.0000
  band No.  band energies     occupation 
      1     -24.2408      1.00000
      2     -22.9505      1.00000
      3     -11.5310      1.00000
      4     -11.0159      1.00000
      5     -10.4549      1.00000
      6      -9.6987      1.00000
      7      -9.2812      1.00000
      8      -7.1244      1.00000
      9      -6.5546      0.99991
     10      -5.8655      0.12990
     11      -5.7856      0.04538
     12      -4.0475      0.00000
     13      -3.7062      0.00000
     14       1.8439      0.00000
     15       2.1076      0.00000
     16       2.8257      0.00000

 k-point    14 :       0.2500    0.1667    0.0000
  band No.  band energies     occupation 
      1     -23.8516      1.00000
      2     -23.0178      1.00000
      3     -11.5640      1.00000
      4     -11.2382      1.00000
      5     -10.3910      1.00000
      6      -9.5596      1.00000
      7      -9.4872      1.00000
      8      -7.5403      1.00000
      9      -6.5208      0.99977
     10      -6.1780      0.86069
     11      -5.7810      0.04232
     12      -3.9769      0.00000
     13      -3.7433      0.00000
     14       3.0555      0.00000
     15       3.3195      0.00000
     16       4.0188      0.00000

 k-point    15 :       0.3333    0.1667    0.0000
  band No.  band energies     occupation 
      1     -23.5052      1.00000
      2     -23.1099      1.00000
      3     -11.9258      1.00000
      4     -11.2235      1.00000
      5     -10.2093      1.00000
      6      -9.5690      1.00000
      7      -9.2851      1.00000
      8      -7.9899      1.00000
      9      -6.6068      0.99998
     10      -6.4152      0.99712
     11      -5.8436      0.09998
     12      -3.8835      0.00000
     13      -3.6711      0.00000
     14       4.5995      0.00000
     15       4.8620      0.00000
     16       5.4850      0.00000

 k-point    16 :       0.4167    0.1667    0.0000
  band No.  band energies     occupation 
      1     -23.2820      1.00000
      2     -23.2353      1.00000
      3     -12.1010      1.00000
      4     -11.2046      1.00000
      5      -9.9075      1.00000
      6      -9.7817      1.00000
      7      -9.1729      1.00000
      8      -8.1637      1.00000
      9      -6.7551      1.00000
     10      -6.3892      0.99501
     11      -5.9064      0.20121
     12      -3.8266      0.00000
     13      -3.6460      0.00000
     14       6.1309      0.00000
     15       6.3720      0.00000
     16       6.7976      0.00000

 k-point    17 :       0.2500    0.2500    0.0000
  band No.  band energies     occupation 
      1     -23.5358      1.00000
      2     -23.0794      1.00000
      3     -11.5578      1.00000
      4     -11.4162      1.00000
      5     -10.4368      1.00000
      6      -9.6135      1.00000
      7      -9.2863      1.00000
      8      -8.0030      1.00000
      9      -6.5892      0.99997
     10      -6.3291      0.98428
     11      -5.7387      0.02154
     12      -3.8817      0.00000
     13      -3.8509      0.00000
     14       4.4388      0.00000
     15       4.6877      0.00000
     16       5.4223      0.00000

 k-point    18 :       0.3333    0.2500    0.0000
  band No.  band energies     occupation 
      1     -23.3040      1.00000
      2     -23.1559      1.00000
      3     -11.7023      1.00000
      4     -11.3810      1.00000
      5     -10.5431      1.00000
      6      -9.4292      1.00000
      7      -9.1315      1.00000
      8      -8.4233      1.00000
      9      -6.7995      1.00000
     10      -6.1836      0.86916
     11      -5.8181      0.07187
     12      -3.8796      0.00000
     13      -3.8344      0.00000
     14       6.0990      0.00000
     15       6.3416      0.00000
     16       6.8893      0.00000

 k-point    19 :       0.3333    0.3333    0.0000
  band No.  band energies     occupation 
      1     -23.2011      1.00000
      2     -23.2002      1.00000
      3     -11.4427      1.00000
      4     -11.4420      1.00000
      5     -10.9290      1.00000
      6      -9.0700      1.00000
      7      -9.0690      1.00000
      8      -8.8127      1.00000
      9      -6.8760      1.00000
     10      -5.9461      0.28877
     11      -5.9457      0.28798
     12      -3.8923      0.00000
     13      -3.8920      0.00000
     14       7.3787      0.00000
     15       7.4831      0.00000
     16       8.2768      0.00000


--------------------------------------------------------------------------------------------------------


 soft charge-density along one line, spin component           1
         0         1         2         3         4         5         6         7         8         9
 total charge-density along one line
 
 soft charge-density along one line, spin component           2
         0         1         2         3         4         5         6         7         8         9
 total charge-density along one line
 
 pseudopotential strength for first ion, spin component:           1
-11.824  -0.000  -0.000   0.063  -0.000 -12.057  -0.000  -0.000
 -0.000 -11.778   0.000   0.000   0.063  -0.000 -12.013   0.000
 -0.000   0.000 -11.747  -0.000   0.000  -0.000   0.000 -11.983
  0.063   0.000  -0.000 -11.778  -0.000   0.061   0.000  -0.000
 -0.000   0.063   0.000  -0.000 -11.824  -0.000   0.061   0.000
-12.057  -0.000  -0.000   0.061  -0.000 -12.246  -0.000  -0.000
 -0.000 -12.013   0.000   0.000   0.061  -0.000 -12.203   0.000
 -0.000   0.000 -11.983  -0.000   0.000  -0.000   0.000 -12.174
  0.061   0.000  -0.000 -12.013  -0.000   0.059   0.000  -0.000
 -0.000   0.061   0.000  -0.000 -12.057  -0.000   0.059   0.000
 -0.000  -0.000  -0.004   0.000   0.000  -0.000  -0.000  -0.005
 -0.000  -0.000  -0.007   0.000   0.000  -0.000  -0.000  -0.008
  0.000   0.000  -0.000   0.000   0.000   0.000   0.000  -0.000
  0.000   0.000   0.000   0.000   0.000   0.000   0.000   0.000
  0.000   0.000  -0.000   0.000   0.000   0.000   0.000  -0.000
  0.000   0.000  -0.000   0.000   0.000   0.000   0.000  -0.000
  0.000   0.000   0.000   0.000   0.000   0.000   0.000   0.000
  0.000   0.000  -0.000   0.000   0.000   0.000   0.000  -0.000
 pseudopotential strength for first ion, spin component:           2
-11.288  -0.000  -0.000   0.154  -0.000 -11.545  -0.000  -0.000
 -0.000 -11.268   0.000   0.000   0.154  -0.000 -11.526   0.000
 -0.000   0.000 -11.048  -0.000   0.000  -0.000   0.000 -11.313
  0.154   0.000  -0.000 -11.268  -0.000   0.149   0.000  -0.000
 -0.000   0.154   0.000  -0.000 -11.288  -0.000   0.149   0.000
-11.545  -0.000  -0.000   0.149  -0.000 -11.756  -0.000  -0.000
 -0.000 -11.526   0.000   0.000   0.149  -0.000 -11.737   0.000
 -0.000   0.000 -11.313  -0.000   0.000  -0.000   0.000 -11.532
  0.149   0.000  -0.000 -11.526  -0.000   0.143   0.000  -0.000
 -0.000   0.149   0.000  -0.000 -11.545  -0.000   0.143   0.000
 -0.000  -0.000  -0.016   0.000   0.000  -0.000  -0.000  -0.017
 -0.000  -0.000  -0.028   0.000   0.000  -0.000  -0.000  -0.029
  0.000   0.000  -0.000   0.000   0.000   0.000   0.000  -0.000
  0.000   0.000   0.000   0.000   0.000   0.000   0.000   0.000
  0.000   0.000  -0.000   0.000   0.000   0.000   0.000  -0.000
  0.000   0.000  -0.000   0.000   0.000   0.000   0.000  -0.000
  0.000   0.000   0.000   0.000   0.000   0.000   0.000   0.000
  0.000   0.000  -0.000   0.000   0.000   0.000   0.000  -0.000
 total augmentation occupancy for first ion, spin component:           1
  6.331   0.000   0.000   1.502  -0.000  -4.984  -0.000  -0.000   0.115   0.000   0.000  -0.000   0.000   0.000   0.000   0.000
  0.000   4.983  -0.000  -0.000   1.502  -0.000  -4.189  -0.000   0.000   0.078  -0.000   0.000   0.000   0.000   0.000   0.000
  0.000  -0.000   6.356   0.000  -0.000  -0.000  -0.000  -3.900  -0.000   0.000   0.858  -0.151   0.000   0.000   0.000   0.000
  1.502  -0.000   0.000   4.983  -0.000   0.078   0.000   0.000  -4.189   0.000   0.000   0.000   0.000   0.000   0.000   0.000
  0.000   1.502  -0.000  -0.000   6.331  -0.000   0.115   0.000   0.000  -4.984  -0.000   0.000   0.000   0.000   0.000   0.000
 -4.984  -0.000  -0.000   0.078   0.000   5.173  -0.000   0.000  -1.317   0.000  -0.000   0.000   0.000   0.000   0.000   0.000
  0.000  -4.189  -0.000   0.000   0.115  -0.000   4.777   0.000   0.000  -1.317  -0.000   0.000   0.000   0.000   0.000   0.000
 -0.000  -0.000  -3.900  -0.000   0.000   0.000   0.000   3.176  -0.000  -0.000  -0.853   0.155   0.000   0.000   0.000   0.000
  0.115   0.000  -0.000  -4.189   0.000  -1.317  -0.000  -0.000   4.777   0.000   0.000  -0.000   0.000   0.000   0.000   0.000
  0.000   0.078   0.000   0.000  -4.984   0.000  -1.317  -0.000   0.000   5.173   0.000  -0.000   0.000   0.000   0.000   0.000
  0.000  -0.000   0.858   0.000  -0.000  -0.000   0.000  -0.853   0.000   0.000   2.141  -0.319   0.000   0.000   0.000   0.000
 -0.000   0.000  -0.151   0.000   0.000   0.000   0.000   0.155  -0.000  -0.000  -0.319   0.113   0.000   0.000   0.000   0.000
  0.000   0.000   0.000   0.000   0.000   0.000   0.000   0.000   0.000   0.000   0.000   0.000   0.497   0.000  -0.000  -0.063
  0.000   0.000   0.000   0.000   0.000   0.000   0.000   0.000   0.000   0.000   0.000   0.000   0.000   0.381   0.000  -0.000
  0.000   0.000   0.000   0.000   0.000   0.000   0.000   0.000   0.000   0.000   0.000   0.000  -0.000  -0.000   0.497   0.000
  0.000   0.000   0.000   0.000   0.000   0.000   0.000   0.000   0.000   0.000   0.000   0.000  -0.063   0.000   0.000   0.013
  0.000   0.000   0.000   0.000   0.000   0.000   0.000   0.000   0.000   0.000   0.000   0.000   0.000  -0.042   0.000  -0.000
  0.000   0.000   0.000   0.000   0.000   0.000   0.000   0.000   0.000   0.000   0.000   0.000   0.000  -0.000  -0.063   0.000
 total augmentation occupancy for first ion, spin component:           2
  0.934   0.000  -0.000   0.898  -0.000  -0.519   0.000  -0.000  -0.628   0.000   0.000   0.000   0.000   0.000   0.000   0.000
  0.000   0.651  -0.000   0.000   0.898   0.000  -0.309   0.000   0.000  -0.631   0.000   0.000   0.000   0.000   0.000   0.000
 -0.000  -0.000   2.294  -0.000  -0.000   0.000   0.000  -1.432  -0.000   0.000   0.042   0.024   0.000   0.000   0.000   0.000
  0.898   0.000  -0.000   0.651  -0.000  -0.631  -0.000   0.000  -0.309   0.000   0.000   0.000   0.000   0.000   0.000   0.000
  0.000   0.898  -0.000  -0.000   0.934   0.000  -0.628   0.000   0.000  -0.519  -0.000  -0.000   0.000   0.000   0.000   0.000
 -0.519  -0.000   0.000  -0.631   0.000   0.237   0.000   0.000   0.449   0.000   0.000  -0.000   0.000   0.000   0.000   0.000
 -0.000  -0.309   0.000   0.000  -0.628   0.000   0.080  -0.000   0.000   0.449   0.000  -0.000   0.000   0.000   0.000   0.000
  0.000   0.000  -1.432  -0.000   0.000  -0.000  -0.000   0.855   0.000  -0.000  -0.026  -0.017   0.000   0.000   0.000   0.000
 -0.628  -0.000   0.000  -0.309   0.000   0.449   0.000   0.000   0.080  -0.000   0.000  -0.000   0.000   0.000   0.000   0.000
  0.000  -0.631   0.000   0.000  -0.519   0.000   0.449  -0.000  -0.000   0.237   0.000   0.000   0.000   0.000   0.000   0.000
  0.000   0.000   0.042   0.000  -0.000   0.000   0.000  -0.026  -0.000   0.000  -0.081   0.032   0.000   0.000   0.000   0.000
  0.000   0.000   0.024   0.000  -0.000  -0.000  -0.000  -0.017  -0.000   0.000   0.032  -0.001   0.000   0.000   0.000   0.000
  0.000   0.000   0.000   0.000   0.000   0.000   0.000   0.000   0.000   0.000   0.000   0.000   0.009   0.000  -0.000   0.002
  0.000   0.000   0.000   0.000   0.000   0.000   0.000   0.000   0.000   0.000   0.000   0.000   0.000  -0.003   0.000   0.000
  0.000   0.000   0.000   0.000   0.000   0.000   0.000   0.000   0.000   0.000   0.000   0.000   0.000   0.000   0.009  -0.000
  0.000   0.000   0.000   0.000   0.000   0.000   0.000   0.000   0.000   0.000   0.000   0.000   0.002   0.000   0.000  -0.000
  0.000   0.000   0.000   0.000   0.000   0.000   0.000   0.000   0.000   0.000   0.000   0.000   0.000   0.002   0.000   0.000
  0.000   0.000   0.000   0.000   0.000   0.000   0.000   0.000   0.000   0.000   0.000   0.000  -0.000   0.000   0.002  -0.000


------------------------ aborting loop because EDIFF is reached ----------------------------------------


 


 total charge     
 
# of ion     s       p       d       tot
----------------------------------------
  1        0.452   0.726   7.211   8.389
  2        1.591   3.365   0.000   4.956
  3        1.591   3.364   0.000   4.955
------------------------------------------------
tot        3.635   7.455   7.211  18.300
 


 magnetization (x)
 
# of ion     s       p       d       tot
----------------------------------------
  1        0.007   0.019   0.712   0.738
  2        0.002   0.083   0.000   0.085
  3        0.002   0.083   0.000   0.085
------------------------------------------------
tot        0.011   0.185   0.712   0.908
 
    CHARGE:  cpu time    0.1178: real time    0.1177
    FORLOC:  cpu time    0.0023: real time    0.0023
    FORNL :  cpu time    0.0905: real time    0.0905
    STRESS:  cpu time    0.4028: real time    0.4025
    FORCOR:  cpu time    2.2349: real time    2.2332
    FORHAR:  cpu time    0.0121: real time    0.0121
    MIXING:  cpu time    0.0074: real time    0.0074
    OFIELD:  cpu time    0.0001: real time    0.0001

  FORCE on cell =-STRESS in cart. coord.  units (eV):
  Direction    XX          YY          ZZ          XY          YZ          ZX
  --------------------------------------------------------------------------------------
  Alpha Z    11.61953    11.61953    11.61953
  Ewald    9038.07611  9038.07547-10075.90437    -0.00063    -0.00018     0.00049
  Hartree  9285.25353  9285.25348 -9092.59793    -0.00003     0.00001     0.00003
  E(xc)    -106.74068  -106.74070  -106.41549    -0.00001    -0.00000    -0.00000
  Local  -18681.33849-18681.33797 18796.26493     0.00042     0.00009    -0.00035
  n-local   -45.39378   -45.28699   -47.30257     0.36213    -1.09935    -2.06081
  augment   166.87923   166.87925   169.93075     0.00005    -0.00003     0.00005
  Kinetic   331.07320   332.11305   344.38219     0.63097     1.53415     2.81241
  Fock        0.00000     0.00000     0.00000     0.00000     0.00000     0.00000
  -------------------------------------------------------------------------------------
  Total       0.00189     0.00189    -0.02296     0.00000     0.00000     0.00000
  in kB       0.01793     0.01793    -0.21799     0.00000     0.00000     0.00000
  external pressure =       -0.06 kB  Pullay stress =        0.00 kB


 VOLUME and BASIS-vectors are now :
 -----------------------------------------------------------------------------
  energy-cutoff  :      800.00
  volume of cell :      168.77
      direct lattice vectors                 reciprocal lattice vectors
     2.817350102 -0.000000000  0.000000000     0.354943462  0.204926754  0.000000000
    -1.408675051  2.439896158  0.000000000     0.000000000  0.409853508  0.000000000
     0.000000000  0.000000000 24.551775000     0.000000000  0.000000000  0.040730253

  length of vectors
     2.817350102  2.817349581 24.551775000     0.409853432  0.409853508  0.040730253


 FORCES acting on ions
    electron-ion (+dipol)            ewald-force                    non-local-force                 convergence-correction
 -----------------------------------------------------------------------------------------------
   -.264E-04 0.491E-05 0.638E-03   0.985E-08 -.330E-08 -.630E-02   0.000E+00 0.000E+00 0.000E+00   -.276E-09 -.814E-10 -.460E-07
   0.154E-02 -.922E-03 -.874E+03   0.260E-03 -.951E-04 0.900E+03   -.139E-16 0.139E-16 -.259E+02   -.425E-08 0.315E-08 0.119E-01
   -.153E-02 0.922E-03 0.874E+03   -.260E-03 0.951E-04 -.900E+03   0.139E-16 -.139E-16 0.259E+02   0.432E-08 -.305E-08 -.119E-01
 -----------------------------------------------------------------------------------------------
   -.240E-04 0.586E-05 -.435E-01   -.156E-13 -.106E-13 -.114E-12   0.000E+00 0.000E+00 0.355E-14   -.202E-09 0.187E-10 0.222E-06
 
 
 POSITION                                       TOTAL-FORCE (eV/Angst)
 -----------------------------------------------------------------------------------
     -0.55066      2.26669      2.27588         0.000000      0.000000      0.000000
      0.85802      1.45339      3.21044         0.000000     -0.000000     -0.000512
      2.26669      0.64009      1.34133        -0.000000      0.000000      0.000512
 -----------------------------------------------------------------------------------
    total drift:                               -0.000024      0.000006     -0.043529


--------------------------------------------------------------------------------------------------------



  FREE ENERGIE OF THE ION-ELECTRON SYSTEM (eV)
  ---------------------------------------------------
  free  energy   TOTEN  =       -13.58625792 eV

  energy  without entropy=      -13.53935669  energy(sigma->0) =      -13.56280731
 
 d Force =-0.3009253E-07[-0.268E-07,-0.334E-07]  d Energy =-0.5465262E-05 0.544E-05
 d Force = 0.4705951E-01[ 0.471E-01, 0.471E-01]  d Ewald  =-0.5447923E+00 0.592E+00


--------------------------------------------------------------------------------------------------------


    POTLOK:  cpu time    2.2500: real time    2.2483


--------------------------------------------------------------------------------------------------------


 Quasi-Newton relaxation of ions (Broydens 2nd method)
  g(Force)  = 0.253E-07   g(Stress)= 0.115E-06

 retain information from N=  1 steps
 eigenvalues of (default step * inverse Hessian matrix)
  average eigenvalue of G=   0.1012
 eigenvalue spectrum of G is  0.1012


--------------------------------------------------------------------------------------------------------


  
 reached required accuracy - stopping structural energy minimisation
     LOOP+:  cpu time  271.1874: real time  272.4292
    4ORBIT:  cpu time    0.0000: real time    0.0000
 


 total charge     
 
# of ion     s       p       d       tot
----------------------------------------
  1        0.452   0.726   7.211   8.389
  2        1.591   3.365   0.000   4.956
  3        1.591   3.364   0.000   4.955
------------------------------------------------
tot        3.635   7.455   7.211  18.300
 


 magnetization (x)
 
# of ion     s       p       d       tot
----------------------------------------
  1        0.007   0.019   0.712   0.738
  2        0.002   0.083   0.000   0.085
  3        0.002   0.083   0.000   0.085
------------------------------------------------
tot        0.011   0.185   0.712   0.908
 

 total amount of memory used by VASP on root node    56041. kBytes
========================================================================

   base      :      30000. kBytes
   nonl-proj :      12099. kBytes
   fftplans  :       3133. kBytes
   grid      :       8084. kBytes
   one-center:         31. kBytes
   wavefun   :       2694. kBytes
 
  
  
 General timing and accounting informations for this job:
 ========================================================
  
                  Total CPU time used (sec):     5711.463
                            User time (sec):     4993.390
                          System time (sec):      718.073
                         Elapsed time (sec):     5814.925
  
                   Maximum memory used (kb):      235616.
                   Average memory used (kb):           0.
  
                          Minor page faults:     23817743
                          Major page faults:            3
                 Voluntary context switches:        24745
