       N       E                     dE             d eps       ncg     rms          rms(c)
NONE   1    -0.263760434119E+02   -0.26376E+02    0.00000E+00     0   0.000E+00
   1 F= -.26376043E+02 E0= -.26375974E+02  d E =-.139767E-03  mag=    -0.0000    -0.0000     2.7249
