 vasp.5.4.1 24Jun15 (build Feb  9 2019 14:26:05) complex                         
 executed on           IFC91_ompi date 2019.12.23  17:45:28
 running on   16 total cores
 distrk:  each k-point on   16 cores,    1 groups
 distr:  one band on NCORES_PER_BAND=   1 cores,   16 groups


--------------------------------------------------------------------------------------------------------


 INCAR:
 POTCAR:    PAW_PBE Mn_pv 02Aug2007               
 POTCAR:    PAW_PBE Se 06Sep2000                  

 ----------------------------------------------------------------------------- 
|                                                                             |
|           W    W    AA    RRRRR   N    N  II  N    N   GGGG   !!!           |
|           W    W   A  A   R    R  NN   N  II  NN   N  G    G  !!!           |
|           W    W  A    A  R    R  N N  N  II  N N  N  G       !!!           |
|           W WW W  AAAAAA  RRRRR   N  N N  II  N  N N  G  GGG   !            |
|           WW  WW  A    A  R   R   N   NN  II  N   NN  G    G                |
|           W    W  A    A  R    R  N    N  II  N    N   GGGG   !!!           |
|                                                                             |
|      For optimal performance we recommend to set                            |
|        NCORE= 4 - approx SQRT( number of cores)                             |
|      NCORE specifies how many cores store one orbital (NPAR=cpu/NCORE).     |
|      This setting can  greatly improve the performance of VASP for DFT.     |
|      The default, NPAR=number of cores might be grossly inefficient         |
|      on modern multi-core architectures or massively parallel machines.     |
|      Do your own testing !!!!                                               |
|      Unfortunately you need to use the default for GW and RPA calculations. |
|      (for HF NCORE is supported but not extensively tested yet)             |
|                                                                             |
 ----------------------------------------------------------------------------- 

 POTCAR:    PAW_PBE Mn_pv 02Aug2007               
   VRHFIN =Mn: 3p4s3d                                                           
   LEXCH  = PE                                                                  
   EATOM  =  2025.2664 eV,  148.8529 Ry                                         
                                                                                
   TITEL  = PAW_PBE Mn_pv 02Aug2007                                             
   LULTRA =        F    use ultrasoft PP ?                                      
   IUNSCR =        1    unscreen: 0-lin 1-nonlin 2-no                           
   RPACOR =    2.080    partial core radius                                     
   POMASS =   54.938; ZVAL   =   13.000    mass and valenz                      
   RCORE  =    2.300    outmost cutoff radius                                   
   RWIGS  =    2.500; RWIGS  =    1.323    wigner-seitz radius (au A)           
   ENMAX  =  269.864; ENMIN  =  202.398 eV                                      
   ICORE  =        3    local potential                                         
   LCOR   =        T    correct aug charges                                     
   LPAW   =        T    paw PP                                                  
   EAUG   =  569.085                                                            
   DEXC   =    0.000                                                            
   RMAX   =    2.343    core radius for proj-oper                               
   RAUG   =    1.300    factor for augmentation sphere                          
   RDEP   =    2.338    radius for radial grids                                 
   RDEPT  =    1.798    core radius for aug-charge                              
                                                                                
   Atomic configuration                                                         
    8 entries                                                                   
     n  l   j            E        occ.                                          
     1  0  0.50     -6424.8287   2.0000                                         
     2  0  0.50      -739.1154   2.0000                                         
     2  1  1.50      -625.3949   6.0000                                         
     3  0  0.50       -81.6100   2.0000                                         
     3  1  1.50       -50.4667   6.0000                                         
     3  2  2.50        -3.3745   6.0000                                         
     4  0  0.50        -4.1331   1.0000                                         
     4  3  2.50        -1.3606   0.0000                                         
   Description                                                                  
     l       E           TYP  RCUT    TYP  RCUT                                 
     1    -50.4666628     23  2.000                                             
     1     -1.3605826     23  2.000                                             
     2     -3.3744729     23  2.300                                             
     2     -4.7350555     23  2.300                                             
     0     -4.1331431     23  2.300                                             
     0      7.6656591     23  2.300                                             
     3      9.5240782     23  2.300                                             
  local pseudopotential read in
  partial core-charges read in
  partial kinetic energy density read in
  atomic valenz-charges read in
  non local Contribution for L=           1  read in
    real space projection operators read in
  non local Contribution for L=           1  read in
    real space projection operators read in
  non local Contribution for L=           2  read in
    real space projection operators read in
  non local Contribution for L=           2  read in
    real space projection operators read in
  non local Contribution for L=           0  read in
    real space projection operators read in
  non local Contribution for L=           0  read in
    real space projection operators read in
    PAW grid and wavefunctions read in

   number of l-projection  operators is LMAX  =           6
   number of lm-projection operators is LMMAX =          18

 POTCAR:    PAW_PBE Se 06Sep2000                  
   VRHFIN =Se: s2p4                                                             
   LEXCH  = PE                                                                  
   EATOM  =   257.1286 eV,   18.8984 Ry                                         
                                                                                
   TITEL  = PAW_PBE Se 06Sep2000                                                
   LULTRA =        F    use ultrasoft PP ?                                      
   IUNSCR =        1    unscreen: 0-lin 1-nonlin 2-no                           
   RPACOR =    1.900    partial core radius                                     
   POMASS =   78.960; ZVAL   =    6.000    mass and valenz                      
   RCORE  =    2.100    outmost cutoff radius                                   
   RWIGS  =    2.200; RWIGS  =    1.164    wigner-seitz radius (au A)           
   ENMAX  =  211.555; ENMIN  =  158.666 eV                                      
   ICORE  =        3    local potential                                         
   LCOR   =        T    correct aug charges                                     
   LPAW   =        T    paw PP                                                  
   EAUG   =  446.842                                                            
   DEXC   =    0.000                                                            
   RMAX   =    2.147    core radius for proj-oper                               
   RAUG   =    1.300    factor for augmentation sphere                          
   RDEP   =    2.177    radius for radial grids                                 
   RDEPT  =    1.928    core radius for aug-charge                              
                                                                                
   Atomic configuration                                                         
   10 entries                                                                   
     n  l   j            E        occ.                                          
     1  0  0.50    -12503.4787   2.0000                                         
     2  0  0.50     -1606.9547   2.0000                                         
     2  1  1.50     -1413.3140   6.0000                                         
     3  0  0.50      -213.4885   2.0000                                         
     3  1  1.50      -152.9538   6.0000                                         
     3  2  2.50       -53.1221  10.0000                                         
     4  0  0.50       -17.2865   2.0000                                         
     4  1  0.50        -6.5110   4.0000                                         
     4  2  2.50        -6.8029   0.0000                                         
     4  3  2.50        -6.8029   0.0000                                         
   Description                                                                  
     l       E           TYP  RCUT    TYP  RCUT                                 
     0    -17.2865377     23  2.100                                             
     0    -15.3094411     23  2.100                                             
     1     -6.5110275     23  2.100                                             
     1     -0.0695192     23  2.100                                             
     2     -6.8029130     23  2.100                                             
     3     -1.3605826      7  2.100                                             
  local pseudopotential read in
  partial core-charges read in
  partial kinetic energy density read in
  atomic valenz-charges read in
  non local Contribution for L=           0  read in
    real space projection operators read in
  non local Contribution for L=           0  read in
    real space projection operators read in
  non local Contribution for L=           1  read in
    real space projection operators read in
  non local Contribution for L=           1  read in
    real space projection operators read in
  non local Contribution for L=           2  read in
    real space projection operators read in
    PAW grid and wavefunctions read in

   number of l-projection  operators is LMAX  =           5
   number of lm-projection operators is LMMAX =          13

  PAW_PBE Mn_pv 02Aug2007               :
 energy of atom  1       EATOM=-2025.2664
 kinetic energy error for atom=    0.0047 (will be added to EATOM!!)
  PAW_PBE Se 06Sep2000                  :
 energy of atom  2       EATOM= -257.1286
 kinetic energy error for atom=    0.0006 (will be added to EATOM!!)


 POSCAR: bulk@JVASP-14431_mp-604910              
  positions in direct lattice
  velocities in cartesian coordinates
 exchange correlation table for  LEXCH =        8
   RHO(1)=    0.500       N(1)  =     2000
   RHO(2)=  100.500       N(2)  =     4000



--------------------------------------------------------------------------------------------------------


 ion  position               nearest neighbor table
   1  0.864  0.864  0.119-   4 2.38   4 2.38   3 2.38   3 2.38   2 2.53   2 2.53   2 2.53   2 2.53

   2  0.364  0.364  0.119-   4 2.38   4 2.38   3 2.38   3 2.38   1 2.53   1 2.53   1 2.53   1 2.53

   3  0.864  0.364  0.179-   1 2.38   2 2.38   1 2.38   2 2.38
   4  0.364  0.864  0.059-   1 2.38   2 2.38   2 2.38   1 2.38

  LATTYP: Found a simple tetragonal cell.
 ALAT       =     3.5767710000
 C/A-ratio  =     7.3380029082
  
  Lattice vectors:
  
 A1 = (   3.5767710000,   0.0000000000,   0.0000000000)
 A2 = (   0.0000000000,   3.5767710000,   0.0000000000)
 A3 = (   0.0000000000,   0.0000000000,  26.2463560000)


Analysis of symmetry for initial positions (statically):
=====================================================================
 Subroutine PRICEL returns:
 Original cell was already a primitive cell.
 

 Routine SETGRP: Setting up the symmetry group for a 
 simple tetragonal supercell.


 Subroutine GETGRP returns: Found 16 space group operations
 (whereof  1 operations were pure point group operations)
 out of a pool of 16 trial point group operations.


The static configuration has the point symmetry C_1 .
 The point group associated with its full space group is D_4h.


Analysis of symmetry for dynamics (positions and initial velocities):
=====================================================================
 Subroutine PRICEL returns:
 Original cell was already a primitive cell.
 

 Routine SETGRP: Setting up the symmetry group for a 
 simple tetragonal supercell.


 Subroutine GETGRP returns: Found 16 space group operations
 (whereof  1 operations were pure point group operations)
 out of a pool of 16 trial point group operations.


The dynamic configuration has the point symmetry C_1 .
 The point group associated with its full space group is D_4h.


Analysis of structural, dynamic, and magnetic symmetry:
=====================================================================
 Subroutine PRICEL returns:
 Original cell was already a primitive cell.
 

 Routine SETGRP: Setting up the symmetry group for a 
 simple tetragonal supercell.


 Subroutine GETGRP returns: Found  8 space group operations
 (whereof  1 operations were pure point group operations)
 out of a pool of 16 trial point group operations.


The (compounded) configuration has the point symmetry C_1 .
 The point group associated with its full space group is C_4h.


 KPOINTS: KPOINTS with grid den

Automatic generation of k-mesh.
Space group operators:
 irot       det(A)        alpha          n_x          n_y          n_z        tau_x        tau_y        tau_z
    1     1.000000     0.000000     1.000000     0.000000     0.000000     0.000000     0.000000     0.000000
    2    -1.000000     0.000000     1.000000     0.000000     0.000000     0.228718     0.228718     0.237990
    3     1.000000    90.000000     0.000000     0.000000    -1.000000     0.228718     0.500000     0.000000
    4    -1.000000    90.000000     0.000000     0.000000    -1.000000     0.000000     0.728718     0.237990
    5     1.000000   180.000000     0.000000     0.000000     1.000000     0.728718     0.728718     0.000000
    6    -1.000000   180.000000     0.000000     0.000000     1.000000     0.500000     0.500000     0.237990
    7     1.000000    90.000000     0.000000     0.000000     1.000000     0.500000     0.228718     0.000000
    8    -1.000000    90.000000     0.000000     0.000000     1.000000     0.728718     0.000000     0.237990
 
 Subroutine IBZKPT returns following result:
 ===========================================
 
 Found     43 irreducible k-points:
 
 Following reciprocal coordinates:
            Coordinates               Weight
  0.000000  0.000000  0.000000      1.000000
  0.076923  0.000000  0.000000      4.000000
  0.153846  0.000000  0.000000      4.000000
  0.230769  0.000000  0.000000      4.000000
  0.307692  0.000000  0.000000      4.000000
  0.384615  0.000000  0.000000      4.000000
  0.461538  0.000000  0.000000      4.000000
  0.076923  0.076923  0.000000      4.000000
  0.153846  0.076923  0.000000      4.000000
  0.230769  0.076923  0.000000      4.000000
  0.307692  0.076923  0.000000      4.000000
  0.384615  0.076923  0.000000      4.000000
  0.461538  0.076923  0.000000      4.000000
 -0.461538  0.076923  0.000000      4.000000
 -0.384615  0.076923  0.000000      4.000000
 -0.307692  0.076923  0.000000      4.000000
 -0.230769  0.076923  0.000000      4.000000
 -0.153846  0.076923  0.000000      4.000000
  0.153846  0.153846  0.000000      4.000000
  0.230769  0.153846  0.000000      4.000000
  0.307692  0.153846  0.000000      4.000000
  0.384615  0.153846  0.000000      4.000000
  0.461538  0.153846  0.000000      4.000000
 -0.461538  0.153846  0.000000      4.000000
 -0.384615  0.153846  0.000000      4.000000
 -0.307692  0.153846  0.000000      4.000000
 -0.230769  0.153846  0.000000      4.000000
  0.230769  0.230769  0.000000      4.000000
  0.307692  0.230769  0.000000      4.000000
  0.384615  0.230769  0.000000      4.000000
  0.461538  0.230769  0.000000      4.000000
 -0.461538  0.230769  0.000000      4.000000
 -0.384615  0.230769  0.000000      4.000000
 -0.307692  0.230769  0.000000      4.000000
  0.307692  0.307692  0.000000      4.000000
  0.384615  0.307692  0.000000      4.000000
  0.461538  0.307692  0.000000      4.000000
 -0.461538  0.307692  0.000000      4.000000
 -0.384615  0.307692  0.000000      4.000000
  0.384615  0.384615  0.000000      4.000000
  0.461538  0.384615  0.000000      4.000000
 -0.461538  0.384615  0.000000      4.000000
  0.461538  0.461538  0.000000      4.000000
 
 Following cartesian coordinates:
            Coordinates               Weight
  0.000000  0.000000  0.000000      1.000000
  0.021506  0.000000  0.000000      4.000000
  0.043013  0.000000  0.000000      4.000000
  0.064519  0.000000  0.000000      4.000000
  0.086025  0.000000  0.000000      4.000000
  0.107531  0.000000  0.000000      4.000000
  0.129038  0.000000  0.000000      4.000000
  0.021506  0.021506  0.000000      4.000000
  0.043013  0.021506  0.000000      4.000000
  0.064519  0.021506  0.000000      4.000000
  0.086025  0.021506  0.000000      4.000000
  0.107531  0.021506  0.000000      4.000000
  0.129038  0.021506  0.000000      4.000000
 -0.129038  0.021506  0.000000      4.000000
 -0.107531  0.021506  0.000000      4.000000
 -0.086025  0.021506  0.000000      4.000000
 -0.064519  0.021506  0.000000      4.000000
 -0.043013  0.021506  0.000000      4.000000
  0.043013  0.043013  0.000000      4.000000
  0.064519  0.043013  0.000000      4.000000
  0.086025  0.043013  0.000000      4.000000
  0.107531  0.043013  0.000000      4.000000
  0.129038  0.043013  0.000000      4.000000
 -0.129038  0.043013  0.000000      4.000000
 -0.107531  0.043013  0.000000      4.000000
 -0.086025  0.043013  0.000000      4.000000
 -0.064519  0.043013  0.000000      4.000000
  0.064519  0.064519  0.000000      4.000000
  0.086025  0.064519  0.000000      4.000000
  0.107531  0.064519  0.000000      4.000000
  0.129038  0.064519  0.000000      4.000000
 -0.129038  0.064519  0.000000      4.000000
 -0.107531  0.064519  0.000000      4.000000
 -0.086025  0.064519  0.000000      4.000000
  0.086025  0.086025  0.000000      4.000000
  0.107531  0.086025  0.000000      4.000000
  0.129038  0.086025  0.000000      4.000000
 -0.129038  0.086025  0.000000      4.000000
 -0.107531  0.086025  0.000000      4.000000
  0.107531  0.107531  0.000000      4.000000
  0.129038  0.107531  0.000000      4.000000
 -0.129038  0.107531  0.000000      4.000000
  0.129038  0.129038  0.000000      4.000000
 
 
 Subroutine IBZKPT_HF returns following result:
 ==============================================
 
 Found    169 k-points in 1st BZ
 the following    169 k-points will be used (e.g. in the exchange kernel)
 Following reciprocal coordinates:   # in IRBZ
  0.000000  0.000000  0.000000    0.00591716   1 t-inv F
  0.076923  0.000000  0.000000    0.00591716   2 t-inv F
  0.153846  0.000000  0.000000    0.00591716   3 t-inv F
  0.230769  0.000000  0.000000    0.00591716   4 t-inv F
  0.307692  0.000000  0.000000    0.00591716   5 t-inv F
  0.384615  0.000000  0.000000    0.00591716   6 t-inv F
  0.461538  0.000000  0.000000    0.00591716   7 t-inv F
  0.076923  0.076923  0.000000    0.00591716   8 t-inv F
  0.153846  0.076923  0.000000    0.00591716   9 t-inv F
  0.230769  0.076923  0.000000    0.00591716  10 t-inv F
  0.307692  0.076923  0.000000    0.00591716  11 t-inv F
  0.384615  0.076923  0.000000    0.00591716  12 t-inv F
  0.461538  0.076923  0.000000    0.00591716  13 t-inv F
 -0.461538  0.076923  0.000000    0.00591716  14 t-inv F
 -0.384615  0.076923  0.000000    0.00591716  15 t-inv F
 -0.307692  0.076923  0.000000    0.00591716  16 t-inv F
 -0.230769  0.076923  0.000000    0.00591716  17 t-inv F
 -0.153846  0.076923  0.000000    0.00591716  18 t-inv F
  0.153846  0.153846  0.000000    0.00591716  19 t-inv F
  0.230769  0.153846  0.000000    0.00591716  20 t-inv F
  0.307692  0.153846  0.000000    0.00591716  21 t-inv F
  0.384615  0.153846  0.000000    0.00591716  22 t-inv F
  0.461538  0.153846  0.000000    0.00591716  23 t-inv F
 -0.461538  0.153846  0.000000    0.00591716  24 t-inv F
 -0.384615  0.153846  0.000000    0.00591716  25 t-inv F
 -0.307692  0.153846  0.000000    0.00591716  26 t-inv F
 -0.230769  0.153846  0.000000    0.00591716  27 t-inv F
  0.230769  0.230769  0.000000    0.00591716  28 t-inv F
  0.307692  0.230769  0.000000    0.00591716  29 t-inv F
  0.384615  0.230769  0.000000    0.00591716  30 t-inv F
  0.461538  0.230769  0.000000    0.00591716  31 t-inv F
 -0.461538  0.230769  0.000000    0.00591716  32 t-inv F
 -0.384615  0.230769  0.000000    0.00591716  33 t-inv F
 -0.307692  0.230769  0.000000    0.00591716  34 t-inv F
  0.307692  0.307692  0.000000    0.00591716  35 t-inv F
  0.384615  0.307692  0.000000    0.00591716  36 t-inv F
  0.461538  0.307692  0.000000    0.00591716  37 t-inv F
 -0.461538  0.307692  0.000000    0.00591716  38 t-inv F
 -0.384615  0.307692  0.000000    0.00591716  39 t-inv F
  0.384615  0.384615  0.000000    0.00591716  40 t-inv F
  0.461538  0.384615  0.000000    0.00591716  41 t-inv F
 -0.461538  0.384615  0.000000    0.00591716  42 t-inv F
  0.461538  0.461538  0.000000    0.00591716  43 t-inv F
 -0.076923 -0.000000 -0.000000    0.00591716   2 t-inv F
 -0.000000  0.076923  0.000000    0.00591716   2 t-inv F
  0.000000 -0.076923 -0.000000    0.00591716   2 t-inv F
 -0.153846 -0.000000 -0.000000    0.00591716   3 t-inv F
 -0.000000  0.153846  0.000000    0.00591716   3 t-inv F
  0.000000 -0.153846 -0.000000    0.00591716   3 t-inv F
 -0.230769 -0.000000 -0.000000    0.00591716   4 t-inv F
 -0.000000  0.230769  0.000000    0.00591716   4 t-inv F
  0.000000 -0.230769 -0.000000    0.00591716   4 t-inv F
 -0.307692 -0.000000 -0.000000    0.00591716   5 t-inv F
 -0.000000  0.307692  0.000000    0.00591716   5 t-inv F
  0.000000 -0.307692 -0.000000    0.00591716   5 t-inv F
 -0.384615 -0.000000 -0.000000    0.00591716   6 t-inv F
 -0.000000  0.384615  0.000000    0.00591716   6 t-inv F
  0.000000 -0.384615 -0.000000    0.00591716   6 t-inv F
 -0.461538 -0.000000 -0.000000    0.00591716   7 t-inv F
 -0.000000  0.461538  0.000000    0.00591716   7 t-inv F
  0.000000 -0.461538 -0.000000    0.00591716   7 t-inv F
 -0.076923 -0.076923 -0.000000    0.00591716   8 t-inv F
 -0.076923  0.076923  0.000000    0.00591716   8 t-inv F
  0.076923 -0.076923 -0.000000    0.00591716   8 t-inv F
 -0.153846 -0.076923 -0.000000    0.00591716   9 t-inv F
 -0.076923  0.153846  0.000000    0.00591716   9 t-inv F
  0.076923 -0.153846 -0.000000    0.00591716   9 t-inv F
 -0.230769 -0.076923 -0.000000    0.00591716  10 t-inv F
 -0.076923  0.230769  0.000000    0.00591716  10 t-inv F
  0.076923 -0.230769 -0.000000    0.00591716  10 t-inv F
 -0.307692 -0.076923 -0.000000    0.00591716  11 t-inv F
 -0.076923  0.307692  0.000000    0.00591716  11 t-inv F
  0.076923 -0.307692 -0.000000    0.00591716  11 t-inv F
 -0.384615 -0.076923 -0.000000    0.00591716  12 t-inv F
 -0.076923  0.384615  0.000000    0.00591716  12 t-inv F
  0.076923 -0.384615 -0.000000    0.00591716  12 t-inv F
 -0.461538 -0.076923 -0.000000    0.00591716  13 t-inv F
 -0.076923  0.461538  0.000000    0.00591716  13 t-inv F
  0.076923 -0.461538 -0.000000    0.00591716  13 t-inv F
  0.461538 -0.076923 -0.000000    0.00591716  14 t-inv F
 -0.076923 -0.461538  0.000000    0.00591716  14 t-inv F
  0.076923  0.461538 -0.000000    0.00591716  14 t-inv F
  0.384615 -0.076923 -0.000000    0.00591716  15 t-inv F
 -0.076923 -0.384615  0.000000    0.00591716  15 t-inv F
  0.076923  0.384615 -0.000000    0.00591716  15 t-inv F
  0.307692 -0.076923 -0.000000    0.00591716  16 t-inv F
 -0.076923 -0.307692  0.000000    0.00591716  16 t-inv F
  0.076923  0.307692 -0.000000    0.00591716  16 t-inv F
  0.230769 -0.076923 -0.000000    0.00591716  17 t-inv F
 -0.076923 -0.230769  0.000000    0.00591716  17 t-inv F
  0.076923  0.230769 -0.000000    0.00591716  17 t-inv F
  0.153846 -0.076923 -0.000000    0.00591716  18 t-inv F
 -0.076923 -0.153846  0.000000    0.00591716  18 t-inv F
  0.076923  0.153846 -0.000000    0.00591716  18 t-inv F
 -0.153846 -0.153846 -0.000000    0.00591716  19 t-inv F
 -0.153846  0.153846  0.000000    0.00591716  19 t-inv F
  0.153846 -0.153846 -0.000000    0.00591716  19 t-inv F
 -0.230769 -0.153846 -0.000000    0.00591716  20 t-inv F
 -0.153846  0.230769  0.000000    0.00591716  20 t-inv F
  0.153846 -0.230769 -0.000000    0.00591716  20 t-inv F
 -0.307692 -0.153846 -0.000000    0.00591716  21 t-inv F
 -0.153846  0.307692  0.000000    0.00591716  21 t-inv F
  0.153846 -0.307692 -0.000000    0.00591716  21 t-inv F
 -0.384615 -0.153846 -0.000000    0.00591716  22 t-inv F
 -0.153846  0.384615  0.000000    0.00591716  22 t-inv F
  0.153846 -0.384615 -0.000000    0.00591716  22 t-inv F
 -0.461538 -0.153846 -0.000000    0.00591716  23 t-inv F
 -0.153846  0.461538  0.000000    0.00591716  23 t-inv F
  0.153846 -0.461538 -0.000000    0.00591716  23 t-inv F
  0.461538 -0.153846 -0.000000    0.00591716  24 t-inv F
 -0.153846 -0.461538  0.000000    0.00591716  24 t-inv F
  0.153846  0.461538 -0.000000    0.00591716  24 t-inv F
  0.384615 -0.153846 -0.000000    0.00591716  25 t-inv F
 -0.153846 -0.384615  0.000000    0.00591716  25 t-inv F
  0.153846  0.384615 -0.000000    0.00591716  25 t-inv F
  0.307692 -0.153846 -0.000000    0.00591716  26 t-inv F
 -0.153846 -0.307692  0.000000    0.00591716  26 t-inv F
  0.153846  0.307692 -0.000000    0.00591716  26 t-inv F
  0.230769 -0.153846 -0.000000    0.00591716  27 t-inv F
 -0.153846 -0.230769  0.000000    0.00591716  27 t-inv F
  0.153846  0.230769 -0.000000    0.00591716  27 t-inv F
 -0.230769 -0.230769 -0.000000    0.00591716  28 t-inv F
 -0.230769  0.230769  0.000000    0.00591716  28 t-inv F
  0.230769 -0.230769 -0.000000    0.00591716  28 t-inv F
 -0.307692 -0.230769 -0.000000    0.00591716  29 t-inv F
 -0.230769  0.307692  0.000000    0.00591716  29 t-inv F
  0.230769 -0.307692 -0.000000    0.00591716  29 t-inv F
 -0.384615 -0.230769 -0.000000    0.00591716  30 t-inv F
 -0.230769  0.384615  0.000000    0.00591716  30 t-inv F
  0.230769 -0.384615 -0.000000    0.00591716  30 t-inv F
 -0.461538 -0.230769 -0.000000    0.00591716  31 t-inv F
 -0.230769  0.461538  0.000000    0.00591716  31 t-inv F
  0.230769 -0.461538 -0.000000    0.00591716  31 t-inv F
  0.461538 -0.230769 -0.000000    0.00591716  32 t-inv F
 -0.230769 -0.461538  0.000000    0.00591716  32 t-inv F
  0.230769  0.461538 -0.000000    0.00591716  32 t-inv F
  0.384615 -0.230769 -0.000000    0.00591716  33 t-inv F
 -0.230769 -0.384615  0.000000    0.00591716  33 t-inv F
  0.230769  0.384615 -0.000000    0.00591716  33 t-inv F
  0.307692 -0.230769 -0.000000    0.00591716  34 t-inv F
 -0.230769 -0.307692  0.000000    0.00591716  34 t-inv F
  0.230769  0.307692 -0.000000    0.00591716  34 t-inv F
 -0.307692 -0.307692 -0.000000    0.00591716  35 t-inv F
 -0.307692  0.307692  0.000000    0.00591716  35 t-inv F
  0.307692 -0.307692 -0.000000    0.00591716  35 t-inv F
 -0.384615 -0.307692 -0.000000    0.00591716  36 t-inv F
 -0.307692  0.384615  0.000000    0.00591716  36 t-inv F
  0.307692 -0.384615 -0.000000    0.00591716  36 t-inv F
 -0.461538 -0.307692 -0.000000    0.00591716  37 t-inv F
 -0.307692  0.461538  0.000000    0.00591716  37 t-inv F
  0.307692 -0.461538 -0.000000    0.00591716  37 t-inv F
  0.461538 -0.307692 -0.000000    0.00591716  38 t-inv F
 -0.307692 -0.461538  0.000000    0.00591716  38 t-inv F
  0.307692  0.461538 -0.000000    0.00591716  38 t-inv F
  0.384615 -0.307692 -0.000000    0.00591716  39 t-inv F
 -0.307692 -0.384615  0.000000    0.00591716  39 t-inv F
  0.307692  0.384615 -0.000000    0.00591716  39 t-inv F
 -0.384615 -0.384615 -0.000000    0.00591716  40 t-inv F
 -0.384615  0.384615  0.000000    0.00591716  40 t-inv F
  0.384615 -0.384615 -0.000000    0.00591716  40 t-inv F
 -0.461538 -0.384615 -0.000000    0.00591716  41 t-inv F
 -0.384615  0.461538  0.000000    0.00591716  41 t-inv F
  0.384615 -0.461538 -0.000000    0.00591716  41 t-inv F
  0.461538 -0.384615 -0.000000    0.00591716  42 t-inv F
 -0.384615 -0.461538  0.000000    0.00591716  42 t-inv F
  0.384615  0.461538 -0.000000    0.00591716  42 t-inv F
 -0.461538 -0.461538 -0.000000    0.00591716  43 t-inv F
 -0.461538  0.461538  0.000000    0.00591716  43 t-inv F
  0.461538 -0.461538 -0.000000    0.00591716  43 t-inv F


--------------------------------------------------------------------------------------------------------




 Dimension of arrays:
   k-points           NKPTS =       43   k-points in BZ     NKDIM =       43   number of bands    NBANDS=     80
   number of dos      NEDOS =   5000   number of ions     NIONS =      4
   non local maximal  LDIM  =      6   non local SUM 2l+1 LMDIM =     18
   total plane-waves  NPLWV = 189000
   max r-space proj   IRMAX =      1   max aug-charges    IRDMAX=  24744
   dimension x,y,z NGX =    30 NGY =   30 NGZ =  210
   dimension x,y,z NGXF=    60 NGYF=   60 NGZF=  420
   support grid    NGXF=    60 NGYF=   60 NGZF=  420
   ions per type =               2   2
 NGX,Y,Z   is equivalent  to a cutoff of  13.94, 13.94, 13.30 a.u.
 NGXF,Y,Z  is equivalent  to a cutoff of  27.89, 27.89, 26.60 a.u.


 I would recommend the setting:
   dimension x,y,z NGX =    29 NGY =   29 NGZ =  210
 SYSTEM =  unknown system                          
 POSCAR =  bulk@JVASP-14431_mp-604910              

 Startparameter for this run:
   NWRITE =      2    write-flag & timer
   PREC   = accura    normal or accurate (medium, high low for compatibility)
   ISTART =      1    job   : 0-new  1-cont  2-samecut
   ICHARG =      0    charge: 1-file 2-atom 10-const
   ISPIN  =      1    spin polarized calculation?
   LNONCOLLINEAR =      T non collinear calculations
   LSORBIT =      T    spin-orbit coupling
   INIWAV =      1    electr: 0-lowe 1-rand  2-diag
   LASPH  =      F    aspherical Exc in radial PAW
   METAGGA=      F    non-selfconsistent MetaGGA calc.

 Electronic Relaxation 1
   ENCUT  =  600.0 eV  44.10 Ry    6.64 a.u.   7.14  7.14 52.42*2*pi/ulx,y,z
   ENINI  =  600.0     initial cutoff
   ENAUG  =  569.1 eV  augmentation charge cutoff
   NELM   =      1;   NELMIN=  2; NELMDL=  0     # of ELM steps 
   EDIFF  = 0.1E-04   stopping-criterion for ELM
   LREAL  =      F    real-space projection
   NLSPLINE    = F    spline interpolate recip. space projectors
   LCOMPAT=      F    compatible to vasp.4.4
   GGA_COMPAT  = T    GGA compatible to vasp.4.4-vasp.4.6
   LMAXPAW     = -100 max onsite density
   LMAXMIX     =    2 max onsite mixed and CHGCAR
   VOSKOWN=      0    Vosko Wilk Nusair interpolation
   ROPT   =    0.00000   0.00000
 Ionic relaxation
   EDIFFG = 0.1E-03   stopping-criterion for IOM
   NSW    =      0    number of steps for IOM
   NBLOCK =      1;   KBLOCK =      1    inner block; outer block 
   IBRION =     -1    ionic relax: 0-MD 1-quasi-New 2-CG
   NFREE  =      0    steps in history (QN), initial steepest desc. (CG)
   ISIF   =      2    stress and relaxation
   IWAVPR =     10    prediction:  0-non 1-charg 2-wave 3-comb
   ISYM   =      2    0-nonsym 1-usesym 2-fastsym
   LCORR  =      T    Harris-Foulkes like correction to forces

   POTIM  = 0.5000    time-step for ionic-motion
   TEIN   =    0.0    initial temperature
   TEBEG  =    0.0;   TEEND  =   0.0 temperature during run
   SMASS  =  -3.00    Nose mass-parameter (am)
   estimated Nose-frequenzy (Omega)   =  0.10E-29 period in steps =****** mass=  -0.292E-27a.u.
   SCALEE = 1.0000    scale energy and forces
   NPACO  =    256;   APACO  = 16.0  distance and # of slots for P.C.
   PSTRESS=    0.0 pullay stress

  Mass of Ions in am
   POMASS =  54.94 78.96
  Ionic Valenz
   ZVAL   =  13.00  6.00
  Atomic Wigner-Seitz radii
   RWIGS  =  -1.00 -1.00
  virtual crystal weights 
   VCA    =   1.00  1.00
   NELECT =      38.0000    total number of electrons
   NUPDOWN=      -1.0000    fix difference up-down

 DOS related values:
   EMIN   =  10.00;   EMAX   =-10.00  energy-range for DOS
   EFERMI =   0.00
   ISMEAR =     0;   SIGMA  =   0.01  broadening in eV -4-tet -1-fermi 0-gaus

 Electronic relaxation 2 (details)
   IALGO  =      2    algorithm
   LDIAG  =      T    sub-space diagonalisation (order eigenvalues)
   LSUBROT=      F    optimize rotation matrix (better conditioning)
   TURBO    =      0    0=normal 1=particle mesh
   IRESTART =      0    0=no restart 2=restart with 2 vectors
   NREBOOT  =      0    no. of reboots
   NMIN     =      0    reboot dimension
   EREF     =   0.00    reference energy to select bands
   IMIX   =      4    mixing-type and parameters
     AMIX     =   0.20;   BMIX     =  0.00
     AMIX_MAG =   0.80;   BMIX_MAG =  0.00
     AMIN     =   0.10
     WC   =   100.;   INIMIX=   1;  MIXPRE=   1;  MAXMIX= -45

 Intra band minimization:
   WEIMIN = 0.0000     energy-eigenvalue tresh-hold
   EBREAK =  0.31E-07  absolut break condition
   DEPER  =   0.30     relativ break condition  

   TIME   =   0.40     timestep for ELM

  volume/ion in A,a.u.               =      83.94       566.48
  Fermi-wavevector in a.u.,A,eV,Ry     =   0.791867  1.496412  8.531580  0.627053
  Thomas-Fermi vector in A             =   1.897492

 Write flags
   LWAVE  =      F    write WAVECAR
   LCHARG =      F    write CHGCAR
   LVTOT  =      F    write LOCPOT, total local potential
   LVHAR  =      F    write LOCPOT, Hartree potential only
   LELF   =      F    write electronic localiz. function (ELF)
   LORBIT =     11    0 simple, 1 ext, 2 COOP (PROOUT)


 Dipole corrections
   LMONO  =      F    monopole corrections only (constant potential shift)
   LDIPOL =      F    correct potential (dipole corrections)
   IDIPOL =      0    1-x, 2-y, 3-z, 4-all directions 
   EPSILON=  1.0000000 bulk dielectric constant

 LDA+U is selected, type is set to LDAUTYPE =  2
   angular momentum for each species LDAUL =     2   -1
   U (eV)           for each species LDAUU =   0.0  0.0
   J (eV)           for each species LDAUJ =   0.0  0.0
 Exchange correlation treatment:
   GGA     =    --    GGA type
   LEXCH   =     8    internal setting for exchange type
   VOSKOWN=      0    Vosko Wilk Nusair interpolation
   LHFCALC =     F    Hartree Fock is set to
   LHFONE  =     F    Hartree Fock one center treatment
   AEXX    =    0.0000 exact exchange contribution

 Linear response parameters
   LEPSILON=     F    determine dielectric tensor
   LRPA    =     F    only Hartree local field effects (RPA)
   LNABLA  =     F    use nabla operator in PAW spheres
   LVEL    =     F    velocity operator in full k-point grid
   LINTERFAST=   F  fast interpolation
   KINTER  =     0    interpolate to denser k-point grid
   CSHIFT  =0.1000    complex shift for real part using Kramers Kronig
   OMEGAMAX=  -1.0    maximum frequency
   DEG_THRESHOLD= 0.2000000E-02 threshold for treating states as degnerate
   RTIME   =    0.100 relaxation time in fs

 Orbital magnetization related:
   ORBITALMAG=     F  switch on orbital magnetization
   LCHIMAG   =     F  perturbation theory with respect to B field
   DQ        =  0.001000  dq finite difference perturbation B field



--------------------------------------------------------------------------------------------------------


 Static calculation
 charge density and potential will be updated during run
 non collinear spin polarized calculation
 None: do nothing, only one-electron occupancies are recalculated
    band-by band algorithm
 perform Loewdin sub-space diagonalisation
    ordering is kept fixed
    before iterative eigenvector-optimisation
 modified Broyden-mixing scheme, WC =      100.0
 initial mixing is a Kerker type mixing with AMIX =  0.2000 and BMIX =      0.0000
 Hartree-type preconditioning will be used
 using additional bands           61
 reciprocal scheme for non local part
 use partial core corrections
 calculate Harris-corrections to forces   (improved forces if not selfconsistent)
 use gradient corrections 
 use of overlap-Matrix (Vanderbilt PP)
 Gauss-broadening in eV      SIGMA  =   0.01


--------------------------------------------------------------------------------------------------------


  energy-cutoff  :      600.00
  volume of cell :      335.78
      direct lattice vectors                 reciprocal lattice vectors
     3.576771000  0.000000000  0.000000000     0.279581779  0.000000000  0.000000000
     0.000000000  3.576771000  0.000000000     0.000000000  0.279581779  0.000000000
     0.000000000  0.000000000 26.246356000     0.000000000  0.000000000  0.038100527

  length of vectors
     3.576771000  3.576771000 26.246356000     0.279581779  0.279581779  0.038100527



 old parameters found on file WAVECAR:
  energy-cutoff  :      600.00
  volume of cell :      335.78
      direct lattice vectors                 reciprocal lattice vectors
     3.576771000  0.000000000  0.000000000     0.279581779  0.000000000  0.000000000
     0.000000000  3.576771000  0.000000000     0.000000000  0.279581779  0.000000000
     0.000000000  0.000000000 26.246356000     0.000000000  0.000000000  0.038100527

  length of vectors


 k-points in units of 2pi/SCALE and weight: KPOINTS with grid den
   0.00000000  0.00000000  0.00000000       0.006
   0.02150629  0.00000000  0.00000000       0.024
   0.04301258  0.00000000  0.00000000       0.024
   0.06451887  0.00000000  0.00000000       0.024
   0.08602516  0.00000000  0.00000000       0.024
   0.10753145  0.00000000  0.00000000       0.024
   0.12903774  0.00000000  0.00000000       0.024
   0.02150629  0.02150629  0.00000000       0.024
   0.04301258  0.02150629  0.00000000       0.024
   0.06451887  0.02150629  0.00000000       0.024
   0.08602516  0.02150629  0.00000000       0.024
   0.10753145  0.02150629  0.00000000       0.024
   0.12903774  0.02150629  0.00000000       0.024
  -0.12903774  0.02150629  0.00000000       0.024
  -0.10753145  0.02150629  0.00000000       0.024
  -0.08602516  0.02150629  0.00000000       0.024
  -0.06451887  0.02150629  0.00000000       0.024
  -0.04301258  0.02150629  0.00000000       0.024
   0.04301258  0.04301258  0.00000000       0.024
   0.06451887  0.04301258  0.00000000       0.024
   0.08602516  0.04301258  0.00000000       0.024
   0.10753145  0.04301258  0.00000000       0.024
   0.12903774  0.04301258  0.00000000       0.024
  -0.12903774  0.04301258  0.00000000       0.024
  -0.10753145  0.04301258  0.00000000       0.024
  -0.08602516  0.04301258  0.00000000       0.024
  -0.06451887  0.04301258  0.00000000       0.024
   0.06451887  0.06451887  0.00000000       0.024
   0.08602516  0.06451887  0.00000000       0.024
   0.10753145  0.06451887  0.00000000       0.024
   0.12903774  0.06451887  0.00000000       0.024
  -0.12903774  0.06451887  0.00000000       0.024
  -0.10753145  0.06451887  0.00000000       0.024
  -0.08602516  0.06451887  0.00000000       0.024
   0.08602516  0.08602516  0.00000000       0.024
   0.10753145  0.08602516  0.00000000       0.024
   0.12903774  0.08602516  0.00000000       0.024
  -0.12903774  0.08602516  0.00000000       0.024
  -0.10753145  0.08602516  0.00000000       0.024
   0.10753145  0.10753145  0.00000000       0.024
   0.12903774  0.10753145  0.00000000       0.024
  -0.12903774  0.10753145  0.00000000       0.024
   0.12903774  0.12903774  0.00000000       0.024

 k-points in reciprocal lattice and weights: KPOINTS with grid den
   0.00000000  0.00000000  0.00000000       0.006
   0.07692308  0.00000000  0.00000000       0.024
   0.15384615  0.00000000  0.00000000       0.024
   0.23076923  0.00000000  0.00000000       0.024
   0.30769231  0.00000000  0.00000000       0.024
   0.38461538  0.00000000  0.00000000       0.024
   0.46153846  0.00000000  0.00000000       0.024
   0.07692308  0.07692308  0.00000000       0.024
   0.15384615  0.07692308  0.00000000       0.024
   0.23076923  0.07692308  0.00000000       0.024
   0.30769231  0.07692308  0.00000000       0.024
   0.38461538  0.07692308  0.00000000       0.024
   0.46153846  0.07692308  0.00000000       0.024
  -0.46153846  0.07692308  0.00000000       0.024
  -0.38461538  0.07692308  0.00000000       0.024
  -0.30769231  0.07692308  0.00000000       0.024
  -0.23076923  0.07692308  0.00000000       0.024
  -0.15384615  0.07692308  0.00000000       0.024
   0.15384615  0.15384615  0.00000000       0.024
   0.23076923  0.15384615  0.00000000       0.024
   0.30769231  0.15384615  0.00000000       0.024
   0.38461538  0.15384615  0.00000000       0.024
   0.46153846  0.15384615  0.00000000       0.024
  -0.46153846  0.15384615  0.00000000       0.024
  -0.38461538  0.15384615  0.00000000       0.024
  -0.30769231  0.15384615  0.00000000       0.024
  -0.23076923  0.15384615  0.00000000       0.024
   0.23076923  0.23076923  0.00000000       0.024
   0.30769231  0.23076923  0.00000000       0.024
   0.38461538  0.23076923  0.00000000       0.024
   0.46153846  0.23076923  0.00000000       0.024
  -0.46153846  0.23076923  0.00000000       0.024
  -0.38461538  0.23076923  0.00000000       0.024
  -0.30769231  0.23076923  0.00000000       0.024
   0.30769231  0.30769231  0.00000000       0.024
   0.38461538  0.30769231  0.00000000       0.024
   0.46153846  0.30769231  0.00000000       0.024
  -0.46153846  0.30769231  0.00000000       0.024
  -0.38461538  0.30769231  0.00000000       0.024
   0.38461538  0.38461538  0.00000000       0.024
   0.46153846  0.38461538  0.00000000       0.024
  -0.46153846  0.38461538  0.00000000       0.024
   0.46153846  0.46153846  0.00000000       0.024

 position of ions in fractional coordinates (direct lattice) 
   0.86435900  0.86435900  0.11899500
   0.36435900  0.36435900  0.11899500
   0.86435900  0.36435900  0.17893600
   0.36435900  0.86435900  0.05905400

 position of ions in cartesian coordinates  (Angst):
   3.09161420  3.09161420  3.12318513
   1.30322870  1.30322870  3.12318513
   3.09161420  1.30322870  4.69641796
   1.30322870  3.09161420  1.54995231

 Euler angles ALPHA=     0.0000000  BETA=     0.0000000

 transformation matrix from SAXIS to cartesian coordinates
 ---------------------------------------------------------
     1.0000000 m_x    -0.0000000 m_y     0.0000000 m_z
     0.0000000 m_x     1.0000000 m_y     0.0000000 m_z
    -0.0000000 m_x     0.0000000 m_y     1.0000000 m_z

 transformation matrix from cartesian coordinates to SAXIS
 ---------------------------------------------------------
     1.0000000 m_x     0.0000000 m_y    -0.0000000 m_z
    -0.0000000 m_x     1.0000000 m_y     0.0000000 m_z
     0.0000000 m_x     0.0000000 m_y     1.0000000 m_z




--------------------------------------------------------------------------------------------------------


 k-point  1 :   0.0000 0.0000 0.0000  plane waves:   22354
 k-point  2 :   0.0769 0.0000 0.0000  plane waves:   22222
 k-point  3 :   0.1538 0.0000 0.0000  plane waves:   22312
 k-point  4 :   0.2308 0.0000 0.0000  plane waves:   22456
 k-point  5 :   0.3077 0.0000 0.0000  plane waves:   22444
 k-point  6 :   0.3846 0.0000 0.0000  plane waves:   22504
 k-point  7 :   0.4615 0.0000 0.0000  plane waves:   22416
 k-point  8 :   0.0769 0.0769 0.0000  plane waves:   22296
 k-point  9 :   0.1538 0.0769 0.0000  plane waves:   22284
 k-point 10 :   0.2308 0.0769 0.0000  plane waves:   22364
 k-point 11 :   0.3077 0.0769 0.0000  plane waves:   22452
 k-point 12 :   0.3846 0.0769 0.0000  plane waves:   22456
 k-point 13 :   0.4615 0.0769 0.0000  plane waves:   22466
 k-point 14 :  -0.4615 0.0769 0.0000  plane waves:   22466
 k-point 15 :  -0.3846 0.0769 0.0000  plane waves:   22456
 k-point 16 :  -0.3077 0.0769 0.0000  plane waves:   22452
 k-point 17 :  -0.2308 0.0769 0.0000  plane waves:   22364
 k-point 18 :  -0.1538 0.0769 0.0000  plane waves:   22284
 k-point 19 :   0.1538 0.1538 0.0000  plane waves:   22324
 k-point 20 :   0.2308 0.1538 0.0000  plane waves:   22400
 k-point 21 :   0.3077 0.1538 0.0000  plane waves:   22422
 k-point 22 :   0.3846 0.1538 0.0000  plane waves:   22408
 k-point 23 :   0.4615 0.1538 0.0000  plane waves:   22436
 k-point 24 :  -0.4615 0.1538 0.0000  plane waves:   22436
 k-point 25 :  -0.3846 0.1538 0.0000  plane waves:   22408
 k-point 26 :  -0.3077 0.1538 0.0000  plane waves:   22422
 k-point 27 :  -0.2308 0.1538 0.0000  plane waves:   22400
 k-point 28 :   0.2308 0.2308 0.0000  plane waves:   22372
 k-point 29 :   0.3077 0.2308 0.0000  plane waves:   22408
 k-point 30 :   0.3846 0.2308 0.0000  plane waves:   22396
 k-point 31 :   0.4615 0.2308 0.0000  plane waves:   22442
 k-point 32 :  -0.4615 0.2308 0.0000  plane waves:   22442
 k-point 33 :  -0.3846 0.2308 0.0000  plane waves:   22396
 k-point 34 :  -0.3077 0.2308 0.0000  plane waves:   22408
 k-point 35 :   0.3077 0.3077 0.0000  plane waves:   22436
 k-point 36 :   0.3846 0.3077 0.0000  plane waves:   22424
 k-point 37 :   0.4615 0.3077 0.0000  plane waves:   22450
 k-point 38 :  -0.4615 0.3077 0.0000  plane waves:   22450
 k-point 39 :  -0.3846 0.3077 0.0000  plane waves:   22424
 k-point 40 :   0.3846 0.3846 0.0000  plane waves:   22460
 k-point 41 :   0.4615 0.3846 0.0000  plane waves:   22456
 k-point 42 :  -0.4615 0.3846 0.0000  plane waves:   22456
 k-point 43 :   0.4615 0.4615 0.0000  plane waves:   22504

 maximum and minimum number of plane-waves per node :     22504    22222

 maximum number of plane-waves:     22504
 maximum index in each direction: 
   IXMAX=    7   IYMAX=    7   IZMAX=   52
   IXMIN=   -7   IYMIN=   -7   IZMIN=  -52

 NGX is ok and might be reduce to  30
 NGY is ok and might be reduce to  30
 NGZ is ok and might be reduce to 210

 serial   3D FFT for wavefunctions
 parallel 3D FFT for charge:
    minimum data exchange during FFTs selected (reduces bandwidth)


 total amount of memory used by VASP on root node   304932. kBytes
========================================================================

   base      :      30000. kBytes
   nonl-proj :     140214. kBytes
   fftplans  :       8150. kBytes
   grid      :      48384. kBytes
   one-center:        248. kBytes
   wavefun   :      77936. kBytes

     INWAV:  cpu time    4.6400: real time    5.5784
 Broyden mixing: mesh for mixing (old mesh)
   NGX = 15   NGY = 15   NGZ =105
  (NGX  = 60   NGY  = 60   NGZ  =420)
  gives a total of  23625 points

 charge density for first step will be calculated from the start-wavefunctions


--------------------------------------------------------------------------------------------------------


 Maximum index for augmentation-charges         1734 (set IRDMAX)


--------------------------------------------------------------------------------------------------------


 initial charge from wavefunction
 First call to EWALD:  gamma=   0.255
 Maximum number of real-space cells 5x 5x 1
 Maximum number of reciprocal cells 2x 2x 9

 FEWALD executed in parallel
    FEWALD:  cpu time    0.0040: real time    0.0047


----------------------------------------- Iteration    1(   1)  ---------------------------------------


    POTLOK:  cpu time    1.1280: real time    1.1259
    SETDIJ:  cpu time    0.0400: real time    0.0383
atom =   1  type =  1  l = 2

 onsite density matrix

spin component  1

  0.6078  0.0000 -0.0000 -0.0000 -0.0000      0.0000 -0.0000  0.0000 -0.0000  0.0058
  0.0000  0.6424  0.0000 -0.0000 -0.0000      0.0000  0.0000  0.0000  0.0060 -0.0000
 -0.0000  0.0000  0.7136 -0.0000 -0.0000     -0.0000 -0.0000 -0.0000  0.0000  0.0000
 -0.0000 -0.0000 -0.0000  0.6424  0.0000      0.0000 -0.0060 -0.0000  0.0000  0.0000
 -0.0000 -0.0000 -0.0000  0.0000  0.7650     -0.0058  0.0000 -0.0000 -0.0000  0.0000

spin component  2

  0.0000  0.0042 -0.0000 -0.0000  0.0000      0.0000 -0.0000  0.0000 -0.0042 -0.0000
 -0.0059 -0.0000 -0.0000  0.0000 -0.0000      0.0000 -0.0000 -0.0090 -0.0000 -0.0037
 -0.0000 -0.0000 -0.0000 -0.0084  0.0000     -0.0000  0.0084  0.0000 -0.0000 -0.0000
  0.0000 -0.0000  0.0090  0.0000 -0.0037      0.0059  0.0000 -0.0000 -0.0000  0.0000
  0.0000 -0.0000 -0.0000  0.0040 -0.0000     -0.0000  0.0040  0.0000  0.0000 -0.0000

spin component  3

  0.0000 -0.0059 -0.0000  0.0000  0.0000     -0.0000 -0.0000  0.0000 -0.0059  0.0000
  0.0042 -0.0000 -0.0000 -0.0000 -0.0000      0.0000  0.0000 -0.0084 -0.0000 -0.0040
 -0.0000 -0.0000 -0.0000  0.0090 -0.0000     -0.0000  0.0090 -0.0000  0.0000 -0.0000
 -0.0000  0.0000 -0.0084 -0.0000  0.0040      0.0042  0.0000  0.0000  0.0000 -0.0000
  0.0000 -0.0000  0.0000 -0.0037 -0.0000      0.0000  0.0037  0.0000 -0.0000  0.0000

spin component  4

  0.5438 -0.0000 -0.0000 -0.0000  0.0000     -0.0000 -0.0000  0.0000 -0.0000 -0.0116
 -0.0000  0.3244  0.0000  0.0000 -0.0000      0.0000  0.0000 -0.0000 -0.0059 -0.0000
 -0.0000  0.0000  0.4652  0.0000 -0.0000     -0.0000  0.0000  0.0000  0.0000 -0.0000
 -0.0000  0.0000  0.0000  0.3244  0.0000      0.0000  0.0059 -0.0000  0.0000  0.0000
  0.0000 -0.0000 -0.0000  0.0000  0.2269      0.0116  0.0000  0.0000 -0.0000 -0.0000

 occupancies and eigenvectors

  o =  0.2264  v =  0.0000  0.0038 -0.0000 -0.0086  0.0000  0.0146  0.0000  0.0000 -0.0000  0.9141      0.0000 -0.0086 -0.0000 -0.0038 -0.0000 -0.0330  0.0000  0.0000 -0.0000  0.4038
  o =  0.3181  v = -0.0288  0.0000 -0.0000 -0.0000 -0.0000 -0.0000 -0.7068  0.0000  0.0001  0.0000     -0.0000  0.0000  0.0000 -0.0000 -0.0112  0.0000 -0.0001  0.0000 -0.7068  0.0000
  o =  0.3298  v = -0.0000 -0.0000  0.0007 -0.0000  0.0000  0.0000 -0.7066 -0.0000 -0.0144  0.0000      0.0000 -0.0000 -0.0332 -0.0000 -0.0000  0.0000 -0.0144 -0.0000  0.7066  0.0000
  o =  0.4645  v =  0.0000  0.0433  0.0000  0.0143  0.0000 -0.0000 -0.0000  0.3131  0.0000  0.0000      0.0000 -0.0143  0.0000  0.0433 -0.0000  0.0000 -0.0000  0.9475  0.0000 -0.0000
  o =  0.5438  v =  0.0000  0.0389  0.0000  0.0259 -0.0000 -0.8305 -0.0000  0.0000 -0.0000 -0.0195      0.0000  0.0259  0.0000 -0.0389  0.0000 -0.5520  0.0000  0.0000  0.0000  0.0293
  o =  0.6078  v = -0.9989 -0.0000  0.0000 -0.0000 -0.0000 -0.0000  0.0200 -0.0000 -0.0000 -0.0000      0.0000 -0.0000  0.0000 -0.0000  0.0381 -0.0000  0.0000  0.0000  0.0200 -0.0000
  o =  0.6368  v = -0.0000 -0.0431 -0.0000  0.7042  0.0000 -0.0040 -0.0000 -0.0000 -0.0000  0.0156      0.0000  0.7042 -0.0000  0.0431  0.0000  0.0654 -0.0000 -0.0000  0.0000  0.0010
  o =  0.6492  v =  0.0000 -0.6848 -0.0000  0.1701 -0.0000 -0.0000  0.0000 -0.0156  0.0000  0.0000      0.0000 -0.1701  0.0000 -0.6848  0.0000  0.0000  0.0000  0.0626 -0.0000  0.0000
  o =  0.7141  v =  0.0000  0.0000  0.7104  0.0000 -0.0000  0.0000 -0.0165 -0.0000  0.0167 -0.0000      0.0000 -0.0000  0.7031  0.0000  0.0000  0.0000  0.0167 -0.0000  0.0165 -0.0000
  o =  0.7653  v = -0.0378 -0.0000  0.0000 -0.0000  0.0000 -0.0000  0.0087  0.0000 -0.0000 -0.0000      0.0000 -0.0000  0.0000 -0.0000 -0.9992 -0.0000  0.0000  0.0000  0.0087  0.0000
atom =   2  type =  1  l = 2

 onsite density matrix

spin component  1

  0.6078  0.0000 -0.0000 -0.0000 -0.0000      0.0000 -0.0000  0.0000 -0.0000  0.0058
  0.0000  0.6424  0.0000 -0.0000 -0.0000      0.0000  0.0000  0.0000  0.0060  0.0000
 -0.0000  0.0000  0.7136 -0.0000  0.0000     -0.0000 -0.0000 -0.0000  0.0000  0.0000
 -0.0000 -0.0000 -0.0000  0.6424 -0.0000      0.0000 -0.0060 -0.0000  0.0000 -0.0000
 -0.0000 -0.0000  0.0000 -0.0000  0.7650     -0.0058 -0.0000 -0.0000  0.0000  0.0000

spin component  2

  0.0000  0.0042 -0.0000 -0.0000 -0.0000      0.0000 -0.0000 -0.0000 -0.0042  0.0000
 -0.0059 -0.0000 -0.0000  0.0000 -0.0000      0.0000 -0.0000 -0.0090 -0.0000 -0.0037
 -0.0000 -0.0000 -0.0000 -0.0084  0.0000     -0.0000  0.0084 -0.0000 -0.0000 -0.0000
  0.0000 -0.0000  0.0090  0.0000 -0.0037      0.0059  0.0000 -0.0000  0.0000  0.0000
 -0.0000 -0.0000 -0.0000  0.0040  0.0000     -0.0000  0.0040  0.0000  0.0000 -0.0000

spin component  3

  0.0000 -0.0059 -0.0000  0.0000 -0.0000     -0.0000 -0.0000  0.0000 -0.0059  0.0000
  0.0042 -0.0000 -0.0000 -0.0000 -0.0000      0.0000  0.0000 -0.0084 -0.0000 -0.0040
 -0.0000 -0.0000 -0.0000  0.0090 -0.0000      0.0000  0.0090 -0.0000  0.0000 -0.0000
 -0.0000  0.0000 -0.0084  0.0000  0.0040      0.0042  0.0000  0.0000  0.0000 -0.0000
 -0.0000 -0.0000  0.0000 -0.0037  0.0000     -0.0000  0.0037  0.0000 -0.0000  0.0000

spin component  4

  0.5438 -0.0000 -0.0000 -0.0000  0.0000     -0.0000 -0.0000  0.0000 -0.0000 -0.0116
 -0.0000  0.3244  0.0000  0.0000 -0.0000      0.0000  0.0000 -0.0000 -0.0059  0.0000
 -0.0000  0.0000  0.4652  0.0000 -0.0000     -0.0000  0.0000  0.0000  0.0000 -0.0000
 -0.0000  0.0000  0.0000  0.3244 -0.0000      0.0000  0.0059 -0.0000  0.0000  0.0000
  0.0000 -0.0000 -0.0000 -0.0000  0.2269      0.0116 -0.0000  0.0000 -0.0000 -0.0000

 occupancies and eigenvectors

  o =  0.2264  v = -0.0000  0.0017 -0.0000  0.0092  0.0000  0.0067  0.0000  0.0000 -0.0000 -0.9820      0.0000  0.0092  0.0000 -0.0017  0.0000  0.0355 -0.0000 -0.0000 -0.0000  0.1847
  o =  0.3181  v = -0.0288 -0.0000 -0.0000  0.0000 -0.0000 -0.0000 -0.7068  0.0000  0.0001 -0.0000      0.0000 -0.0000  0.0000 -0.0000 -0.0112  0.0000 -0.0001 -0.0000 -0.7068  0.0000
  o =  0.3298  v =  0.0000 -0.0000  0.0101 -0.0000  0.0000 -0.0000  0.6731  0.0000 -0.2155  0.0000      0.0000 -0.0000  0.0317 -0.0000 -0.0000 -0.0000 -0.2155 -0.0000 -0.6731  0.0000
  o =  0.4645  v =  0.0000  0.0403 -0.0000 -0.0214 -0.0000  0.0000  0.0000 -0.4668 -0.0000 -0.0000      0.0000  0.0214 -0.0000  0.0403 -0.0000  0.0000 -0.0000  0.8820 -0.0000 -0.0000
  o =  0.5438  v =  0.0000 -0.0455 -0.0000  0.0105 -0.0000  0.9719  0.0000  0.0000 -0.0000 -0.0079      0.0000  0.0105 -0.0000  0.0455  0.0000 -0.2232 -0.0000 -0.0000 -0.0000 -0.0343
  o =  0.6078  v =  0.9989 -0.0000  0.0000  0.0000  0.0000 -0.0000 -0.0200 -0.0000  0.0000 -0.0000      0.0000 -0.0000  0.0000 -0.0000 -0.0381 -0.0000 -0.0000  0.0000 -0.0200  0.0000
  o =  0.6368  v = -0.0000 -0.3976  0.0000 -0.5828 -0.0000 -0.0369 -0.0000  0.0000 -0.0000 -0.0129      0.0000 -0.5828  0.0000  0.3976  0.0000 -0.0542  0.0000 -0.0000  0.0000  0.0088
  o =  0.6492  v = -0.0000 -0.6881 -0.0000  0.1565 -0.0000 -0.0000 -0.0000 -0.0143 -0.0000 -0.0000      0.0000 -0.1565 -0.0000 -0.6881  0.0000 -0.0000  0.0000  0.0629  0.0000  0.0000
  o =  0.7141  v =  0.0000 -0.0000 -0.9351 -0.0000  0.0000 -0.0000  0.0083  0.0000 -0.0220  0.0000      0.0000 -0.0000 -0.3529  0.0000 -0.0000  0.0000 -0.0220 -0.0000 -0.0083  0.0000
  o =  0.7653  v = -0.0378 -0.0000  0.0000  0.0000  0.0000 -0.0000  0.0087  0.0000 -0.0000 -0.0000      0.0000  0.0000 -0.0000  0.0000 -0.9992  0.0000  0.0000  0.0000  0.0087  0.0000
    EDDIAG:  cpu time    0.0000: real time    0.0000
       DOS:  cpu time    0.0000: real time    0.0020
    --------------------------------------------
      LOOP:  cpu time    1.1680: real time    1.1723

 eigenvalue-minimisations  :     0
 total energy-change (2. order) :-0.2637604E+02  ( 0.0000000E+00)
 number of electron      38.0000022 magnetization      -0.0000000     -0.0000000      2.7248536
 augmentation part       12.3567721 magnetization      -0.0000000     -0.0000000      2.1691470

 Free energy of the ion-electron system (eV)
  ---------------------------------------------------
  alpha Z        PSCENC =        34.15002945
  Ewald energy   TEWEN  =     13986.46071773
  -Hartree energ DENC   =    -17891.81912254
  -exchange      EXHF   =         0.00000000
  -V(xc)+E(xc)   XCENC  =       135.51764694
  PAW double counting   =      4492.42362311    -4570.36940648
  entropy T*S    EENTRO =        -0.00013977
  eigenvalues    EBANDS =      -777.51866951
  atomic energy  EATOM  =      4564.77927765
  Solvation  Ediel_sol  =         0.00000000
  ---------------------------------------------------
  free energy    TOTEN  =       -26.37604341 eV

  energy without entropy =      -26.37590364  energy(sigma->0) =      -26.37597353


--------------------------------------------------------------------------------------------------------




 average (electrostatic) potential at core
  the test charge radii are     0.9577  1.0808
  (the norm of the test charge is              1.0000)
       1 -76.9171       2 -76.9171       3 -61.1941       4 -61.1941



 E-fermi :  -2.2189     XC(G=0):  -2.7477     alpha+bet : -2.5062


 k-point     1 :       0.0000    0.0000    0.0000
  band No.  band energies     occupation 
      1     -51.6620      1.00000
      2     -51.4054      1.00000
      3     -51.1804      1.00000
      4     -51.1564      1.00000
      5     -50.6921      1.00000
      6     -50.3915      1.00000
      7     -49.6276      1.00000
      8     -49.3779      1.00000
      9     -49.2192      1.00000
     10     -49.1631      1.00000
     11     -49.0796      1.00000
     12     -48.7586      1.00000
     13     -16.7636      1.00000
     14     -16.7026      1.00000
     15     -16.0837      1.00000
     16     -16.0003      1.00000
     17      -8.0156      1.00000
     18      -7.8416      1.00000
     19      -7.4902      1.00000
     20      -6.8939      1.00000
     21      -6.4793      1.00000
     22      -6.3965      1.00000
     23      -5.9466      1.00000
     24      -5.8053      1.00000
     25      -5.3478      1.00000
     26      -4.9118      1.00000
     27      -4.7528      1.00000
     28      -4.7253      1.00000
     29      -4.5371      1.00000
     30      -4.5328      1.00000
     31      -3.6993      1.00000
     32      -3.2408      1.00000
     33      -2.9350      1.00000
     34      -2.7835      1.00000
     35      -2.4700      1.00000
     36      -2.3225      1.00000
     37      -2.2290      0.92287
     38      -2.1480      0.00000
     39      -2.0675      0.00000
     40      -0.9809      0.00000
     41      -0.9395      0.00000
     42      -0.8785      0.00000
     43      -0.4648      0.00000
     44      -0.3080      0.00000
     45      -0.2918      0.00000
     46       0.1231      0.00000
     47       0.2438      0.00000
     48       0.3765      0.00000
     49       0.6182      0.00000
     50       0.6508      0.00000
     51       1.7517      0.00000
     52       1.8080      0.00000
     53       2.1244      0.00000
     54       2.1620      0.00000
     55       2.5498      0.00000
     56       2.5794      0.00000
     57       2.7037      0.00000
     58       2.7504      0.00000
     59       3.2812      0.00000
     60       3.5256      0.00000
     61       3.7135      0.00000
     62       3.7422      0.00000
     63       4.2746      0.00000
     64       4.4003      0.00000
     65       4.5232      0.00000
     66       4.6146      0.00000
     67       5.0069      0.00000
     68       5.4531      0.00000
     69       5.4573      0.00000
     70       5.4863      0.00000
     71       5.7511      0.00000
     72       5.7751      0.00000
     73       5.9058      0.00000
     74       5.9349      0.00000
     75       6.4702      0.00000
     76       6.5119      0.00000
     77       7.2229      0.00000
     78       7.3865      0.00000
     79       7.7559      0.00000
     80       7.7933      0.00000

 k-point     2 :       0.0769    0.0000    0.0000
  band No.  band energies     occupation 
      1     -51.6584      1.00000
      2     -51.4093      1.00000
      3     -51.1799      1.00000
      4     -51.1566      1.00000
      5     -50.6881      1.00000
      6     -50.3962      1.00000
      7     -49.6244      1.00000
      8     -49.3820      1.00000
      9     -49.2184      1.00000
     10     -49.1640      1.00000
     11     -49.0753      1.00000
     12     -48.7636      1.00000
     13     -16.7298      1.00000
     14     -16.6682      1.00000
     15     -16.0670      1.00000
     16     -15.9836      1.00000
     17      -7.9642      1.00000
     18      -7.7923      1.00000
     19      -7.4558      1.00000
     20      -6.8789      1.00000
     21      -6.5282      1.00000
     22      -6.4022      1.00000
     23      -6.0183      1.00000
     24      -5.8256      1.00000
     25      -5.3051      1.00000
     26      -5.0324      1.00000
     27      -4.8748      1.00000
     28      -4.7971      1.00000
     29      -4.6010      1.00000
     30      -4.4915      1.00000
     31      -3.7056      1.00000
     32      -3.2701      1.00000
     33      -3.0215      1.00000
     34      -2.7819      1.00000
     35      -2.5394      1.00000
     36      -2.3684      1.00000
     37      -2.2267      0.86376
     38      -2.1044      0.00000
     39      -2.0211      0.00000
     40      -1.0080      0.00000
     41      -0.9523      0.00000
     42      -0.8553      0.00000
     43      -0.6738      0.00000
     44      -0.3932      0.00000
     45      -0.3632      0.00000
     46       0.0496      0.00000
     47       0.0656      0.00000
     48       0.3137      0.00000
     49       0.8712      0.00000
     50       0.9426      0.00000
     51       1.8341      0.00000
     52       1.8903      0.00000
     53       2.2064      0.00000
     54       2.2415      0.00000
     55       2.6269      0.00000
     56       2.6571      0.00000
     57       2.8159      0.00000
     58       2.8394      0.00000
     59       3.4065      0.00000
     60       3.6594      0.00000
     61       3.7829      0.00000
     62       3.8109      0.00000
     63       4.5144      0.00000
     64       4.5219      0.00000
     65       4.6427      0.00000
     66       4.6494      0.00000
     67       5.0999      0.00000
     68       5.4351      0.00000
     69       5.5114      0.00000
     70       5.5278      0.00000
     71       5.5514      0.00000
     72       5.7270      0.00000
     73       5.8566      0.00000
     74       6.0276      0.00000
     75       6.6507      0.00000
     76       6.6869      0.00000
     77       7.1301      0.00000
     78       7.2847      0.00000
     79       7.7951      0.00000
     80       7.8250      0.00000

 k-point     3 :       0.1538    0.0000    0.0000
  band No.  band energies     occupation 
      1     -51.6480      1.00000
      2     -51.4208      1.00000
      3     -51.1784      1.00000
      4     -51.1571      1.00000
      5     -50.6761      1.00000
      6     -50.4100      1.00000
      7     -49.6149      1.00000
      8     -49.3938      1.00000
      9     -49.2161      1.00000
     10     -49.1664      1.00000
     11     -49.0625      1.00000
     12     -48.7784      1.00000
     13     -16.6327      1.00000
     14     -16.5694      1.00000
     15     -16.0211      1.00000
     16     -15.9380      1.00000
     17      -7.8190      1.00000
     18      -7.6545      1.00000
     19      -7.3646      1.00000
     20      -6.8679      1.00000
     21      -6.7064      1.00000
     22      -6.3520      1.00000
     23      -6.2877      1.00000
     24      -5.7881      1.00000
     25      -5.4366      1.00000
     26      -5.2781      1.00000
     27      -5.1789      1.00000
     28      -4.8921      1.00000
     29      -4.6659      1.00000
     30      -4.3551      1.00000
     31      -3.7271      1.00000
     32      -3.5412      1.00000
     33      -2.9830      1.00000
     34      -2.7805      1.00000
     35      -2.6942      1.00000
     36      -2.5053      1.00000
     37      -2.3254      1.00000
     38      -1.9522      0.00000
     39      -1.9064      0.00000
     40      -1.1034      0.00000
     41      -1.0680      0.00000
     42      -1.0626      0.00000
     43      -0.7434      0.00000
     44      -0.6518      0.00000
     45      -0.3873      0.00000
     46      -0.1938      0.00000
     47      -0.0657      0.00000
     48       0.2942      0.00000
     49       1.3070      0.00000
     50       1.3643      0.00000
     51       2.0135      0.00000
     52       2.0570      0.00000
     53       2.4429      0.00000
     54       2.4694      0.00000
     55       2.8534      0.00000
     56       2.8794      0.00000
     57       3.0385      0.00000
     58       3.0395      0.00000
     59       3.7259      0.00000
     60       3.9539      0.00000
     61       3.9849      0.00000
     62       4.0076      0.00000
     63       4.2896      0.00000
     64       4.5432      0.00000
     65       5.0858      0.00000
     66       5.1364      0.00000
     67       5.1664      0.00000
     68       5.2612      0.00000
     69       5.7025      0.00000
     70       5.7291      0.00000
     71       5.8588      0.00000
     72       6.1114      0.00000
     73       6.1375      0.00000
     74       6.3158      0.00000
     75       6.8075      0.00000
     76       6.9180      0.00000
     77       6.9590      0.00000
     78       6.9785      0.00000
     79       7.9577      0.00000
     80       7.9703      0.00000

 k-point     4 :       0.2308    0.0000    0.0000
  band No.  band energies     occupation 
      1     -51.6313      1.00000
      2     -51.4391      1.00000
      3     -51.1761      1.00000
      4     -51.1581      1.00000
      5     -50.6567      1.00000
      6     -50.4318      1.00000
      7     -49.5994      1.00000
      8     -49.4126      1.00000
      9     -49.2123      1.00000
     10     -49.1702      1.00000
     11     -49.0419      1.00000
     12     -48.8017      1.00000
     13     -16.4852      1.00000
     14     -16.4192      1.00000
     15     -15.9589      1.00000
     16     -15.8762      1.00000
     17      -7.6239      1.00000
     18      -7.4749      1.00000
     19      -7.2652      1.00000
     20      -7.0180      1.00000
     21      -6.8514      1.00000
     22      -6.6256      1.00000
     23      -6.2566      1.00000
     24      -5.9562      1.00000
     25      -5.7230      1.00000
     26      -5.6979      1.00000
     27      -5.0096      1.00000
     28      -4.9750      1.00000
     29      -4.7315      1.00000
     30      -4.1331      1.00000
     31      -3.8176      1.00000
     32      -3.7681      1.00000
     33      -2.9604      1.00000
     34      -2.8242      1.00000
     35      -2.7864      1.00000
     36      -2.7195      1.00000
     37      -2.5277      1.00000
     38      -1.8202      0.00000
     39      -1.7598      0.00000
     40      -1.4392      0.00000
     41      -1.3101      0.00000
     42      -1.0873      0.00000
     43      -0.9683      0.00000
     44      -0.5923      0.00000
     45      -0.4117      0.00000
     46      -0.3798      0.00000
     47      -0.1800      0.00000
     48       0.2638      0.00000
     49       1.7862      0.00000
     50       1.8360      0.00000
     51       2.1463      0.00000
     52       2.1517      0.00000
     53       2.8152      0.00000
     54       2.8269      0.00000
     55       3.2110      0.00000
     56       3.2198      0.00000
     57       3.2353      0.00000
     58       3.2419      0.00000
     59       4.0434      0.00000
     60       4.0818      0.00000
     61       4.0962      0.00000
     62       4.3012      0.00000
     63       4.3078      0.00000
     64       4.5161      0.00000
     65       5.3228      0.00000
     66       5.3553      0.00000
     67       5.6182      0.00000
     68       5.7636      0.00000
     69       5.9045      0.00000
     70       5.9263      0.00000
     71       6.4423      0.00000
     72       6.5824      0.00000
     73       6.5877      0.00000
     74       6.6530      0.00000
     75       6.6840      0.00000
     76       6.8083      0.00000
     77       7.3124      0.00000
     78       7.3231      0.00000
     79       8.2646      0.00000
     80       8.2773      0.00000

 k-point     5 :       0.3077    0.0000    0.0000
  band No.  band energies     occupation 
      1     -51.6089      1.00000
      2     -51.4631      1.00000
      3     -51.1733      1.00000
      4     -51.1596      1.00000
      5     -50.6309      1.00000
      6     -50.4602      1.00000
      7     -49.5787      1.00000
      8     -49.4369      1.00000
      9     -49.2073      1.00000
     10     -49.1754      1.00000
     11     -49.0144      1.00000
     12     -48.8322      1.00000
     13     -16.3089      1.00000
     14     -16.2396      1.00000
     15     -15.9010      1.00000
     16     -15.8191      1.00000
     17      -7.5712      1.00000
     18      -7.4332      1.00000
     19      -7.2840      1.00000
     20      -7.1587      1.00000
     21      -7.0090      1.00000
     22      -6.7652      1.00000
     23      -6.3405      1.00000
     24      -6.1334      1.00000
     25      -5.9509      1.00000
     26      -5.5737      1.00000
     27      -5.1633      1.00000
     28      -4.8252      1.00000
     29      -4.7006      1.00000
     30      -3.9916      1.00000
     31      -3.8270      1.00000
     32      -3.8204      1.00000
     33      -3.0388      1.00000
     34      -2.9938      1.00000
     35      -2.8568      1.00000
     36      -2.8366      1.00000
     37      -2.7857      1.00000
     38      -1.8279      0.00000
     39      -1.6722      0.00000
     40      -1.6276      0.00000
     41      -1.6004      0.00000
     42      -1.2697      0.00000
     43      -1.0458      0.00000
     44      -0.5290      0.00000
     45      -0.5005      0.00000
     46      -0.4239      0.00000
     47      -0.2171      0.00000
     48       0.2103      0.00000
     49       2.0689      0.00000
     50       2.1211      0.00000
     51       2.3169      0.00000
     52       2.3726      0.00000
     53       3.2714      0.00000
     54       3.2897      0.00000
     55       3.5211      0.00000
     56       3.5227      0.00000
     57       3.6194      0.00000
     58       3.6445      0.00000
     59       4.3126      0.00000
     60       4.3456      0.00000
     61       4.3935      0.00000
     62       4.6152      0.00000
     63       4.6338      0.00000
     64       4.7543      0.00000
     65       5.3408      0.00000
     66       5.4259      0.00000
     67       5.7528      0.00000
     68       5.7642      0.00000
     69       6.2216      0.00000
     70       6.3039      0.00000
     71       6.6451      0.00000
     72       6.6755      0.00000
     73       6.7737      0.00000
     74       6.7852      0.00000
     75       6.8279      0.00000
     76       7.0309      0.00000
     77       7.6188      0.00000
     78       7.6240      0.00000
     79       7.9192      0.00000
     80       7.9256      0.00000

 k-point     6 :       0.3846    0.0000    0.0000
  band No.  band energies     occupation 
      1     -51.5822      1.00000
      2     -51.4912      1.00000
      3     -51.1702      1.00000
      4     -51.1617      1.00000
      5     -50.5999      1.00000
      6     -50.4933      1.00000
      7     -49.5535      1.00000
      8     -49.4650      1.00000
      9     -49.2014      1.00000
     10     -49.1814      1.00000
     11     -48.9814      1.00000
     12     -48.8676      1.00000
     13     -16.1326      1.00000
     14     -16.0596      1.00000
     15     -15.8730      1.00000
     16     -15.7923      1.00000
     17      -7.7244      1.00000
     18      -7.6123      1.00000
     19      -7.5059      1.00000
     20      -7.4560      1.00000
     21      -6.8189      1.00000
     22      -6.5811      1.00000
     23      -6.4440      1.00000
     24      -6.0737      1.00000
     25      -5.9236      1.00000
     26      -5.4242      1.00000
     27      -5.3472      1.00000
     28      -4.9485      1.00000
     29      -4.3702      1.00000
     30      -4.0380      1.00000
     31      -3.8596      1.00000
     32      -3.4602      1.00000
     33      -3.2554      1.00000
     34      -3.2140      1.00000
     35      -3.1850      1.00000
     36      -2.8144      1.00000
     37      -2.7827      1.00000
     38      -2.1127      0.00000
     39      -1.9087      0.00000
     40      -1.6901      0.00000
     41      -1.5732      0.00000
     42      -1.5424      0.00000
     43      -0.9439      0.00000
     44      -0.6018      0.00000
     45      -0.5629      0.00000
     46      -0.4252      0.00000
     47      -0.1777      0.00000
     48       0.1286      0.00000
     49       2.0704      0.00000
     50       2.1844      0.00000
     51       2.8268      0.00000
     52       2.9478      0.00000
     53       3.5158      0.00000
     54       3.5944      0.00000
     55       4.0302      0.00000
     56       4.0422      0.00000
     57       4.0927      0.00000
     58       4.0961      0.00000
     59       4.6219      0.00000
     60       4.8056      0.00000
     61       4.8103      0.00000
     62       4.8602      0.00000
     63       4.8847      0.00000
     64       4.9441      0.00000
     65       5.4638      0.00000
     66       5.5205      0.00000
     67       5.8012      0.00000
     68       5.8470      0.00000
     69       6.2812      0.00000
     70       6.3072      0.00000
     71       6.3108      0.00000
     72       6.3593      0.00000
     73       6.7493      0.00000
     74       6.7576      0.00000
     75       6.7658      0.00000
     76       6.7684      0.00000
     77       6.9909      0.00000
     78       7.2395      0.00000
     79       7.2409      0.00000
     80       7.2734      0.00000

 k-point     7 :       0.4615    0.0000    0.0000
  band No.  band energies     occupation 
      1     -51.5526      1.00000
      2     -51.5216      1.00000
      3     -51.1671      1.00000
      4     -51.1642      1.00000
      5     -50.5653      1.00000
      6     -50.5291      1.00000
      7     -49.5251      1.00000
      8     -49.4950      1.00000
      9     -49.1948      1.00000
     10     -49.1880      1.00000
     11     -48.9445      1.00000
     12     -48.9059      1.00000
     13     -15.9875      1.00000
     14     -15.9113      1.00000
     15     -15.8982      1.00000
     16     -15.8194      1.00000
     17      -7.8071      1.00000
     18      -7.7338      1.00000
     19      -7.7292      1.00000
     20      -7.6829      1.00000
     21      -6.5950      1.00000
     22      -6.4737      1.00000
     23      -6.3348      1.00000
     24      -6.1549      1.00000
     25      -5.7481      1.00000
     26      -5.5477      1.00000
     27      -5.2610      1.00000
     28      -5.0978      1.00000
     29      -4.0000      1.00000
     30      -3.9811      1.00000
     31      -3.8903      1.00000
     32      -3.5964      1.00000
     33      -3.4231      1.00000
     34      -3.3767      1.00000
     35      -3.0367      1.00000
     36      -2.7482      1.00000
     37      -2.7474      1.00000
     38      -2.5764      1.00000
     39      -1.9587      0.00000
     40      -1.8328      0.00000
     41      -1.6636      0.00000
     42      -1.5938      0.00000
     43      -0.8097      0.00000
     44      -0.6745      0.00000
     45      -0.5846      0.00000
     46      -0.5052      0.00000
     47      -0.0871      0.00000
     48       0.0239      0.00000
     49       2.3308      0.00000
     50       2.5131      0.00000
     51       2.7478      0.00000
     52       2.9830      0.00000
     53       3.8614      0.00000
     54       3.8869      0.00000
     55       4.5423      0.00000
     56       4.5770      0.00000
     57       4.7031      0.00000
     58       4.7210      0.00000
     59       4.7883      0.00000
     60       4.7917      0.00000
     61       5.1073      0.00000
     62       5.1688      0.00000
     63       5.2088      0.00000
     64       5.3955      0.00000
     65       5.5833      0.00000
     66       5.6064      0.00000
     67       5.6176      0.00000
     68       5.6364      0.00000
     69       5.7515      0.00000
     70       5.7719      0.00000
     71       5.8695      0.00000
     72       5.9623      0.00000
     73       6.3579      0.00000
     74       6.3583      0.00000
     75       6.5608      0.00000
     76       6.5635      0.00000
     77       6.9608      0.00000
     78       6.9784      0.00000
     79       7.0612      0.00000
     80       7.0638      0.00000

 k-point     8 :       0.0769    0.0769    0.0000
  band No.  band energies     occupation 
      1     -51.6551      1.00000
      2     -51.4132      1.00000
      3     -51.1794      1.00000
      4     -51.1567      1.00000
      5     -50.6840      1.00000
      6     -50.4007      1.00000
      7     -49.6215      1.00000
      8     -49.3861      1.00000
      9     -49.2176      1.00000
     10     -49.1647      1.00000
     11     -49.0709      1.00000
     12     -48.7683      1.00000
     13     -16.6963      1.00000
     14     -16.6342      1.00000
     15     -16.0501      1.00000
     16     -15.9669      1.00000
     17      -7.9136      1.00000
     18      -7.7437      1.00000
     19      -7.4203      1.00000
     20      -6.8629      1.00000
     21      -6.5834      1.00000
     22      -6.3945      1.00000
     23      -6.0821      1.00000
     24      -5.8464      1.00000
     25      -5.2661      1.00000
     26      -5.1266      1.00000
     27      -4.9679      1.00000
     28      -4.8821      1.00000
     29      -4.6876      1.00000
     30      -4.4507      1.00000
     31      -3.7127      1.00000
     32      -3.2119      1.00000
     33      -3.1961      1.00000
     34      -2.7818      1.00000
     35      -2.6023      1.00000
     36      -2.4114      1.00000
     37      -2.2641      1.00000
     38      -2.0408      0.00000
     39      -2.0002      0.00000
     40      -1.0251      0.00000
     41      -0.9605      0.00000
     42      -0.8466      0.00000
     43      -0.7119      0.00000
     44      -0.5854      0.00000
     45      -0.4618      0.00000
     46       0.0030      0.00000
     47       0.0273      0.00000
     48       0.1378      0.00000
     49       1.1100      0.00000
     50       1.1907      0.00000
     51       1.9140      0.00000
     52       1.9688      0.00000
     53       2.2922      0.00000
     54       2.3242      0.00000
     55       2.7073      0.00000
     56       2.7385      0.00000
     57       2.9223      0.00000
     58       2.9264      0.00000
     59       3.5601      0.00000
     60       3.8096      0.00000
     61       3.8535      0.00000
     62       3.8819      0.00000
     63       4.5043      0.00000
     64       4.6612      0.00000
     65       4.7599      0.00000
     66       4.8839      0.00000
     67       5.2068      0.00000
     68       5.4420      0.00000
     69       5.5406      0.00000
     70       5.5664      0.00000
     71       5.5852      0.00000
     72       5.6175      0.00000
     73       5.7811      0.00000
     74       6.0014      0.00000
     75       6.7936      0.00000
     76       6.8234      0.00000
     77       7.0458      0.00000
     78       7.1910      0.00000
     79       7.8448      0.00000
     80       7.8678      0.00000

 k-point     9 :       0.1538    0.0769    0.0000
  band No.  band energies     occupation 
      1     -51.6453      1.00000
      2     -51.4246      1.00000
      3     -51.1780      1.00000
      4     -51.1573      1.00000
      5     -50.6721      1.00000
      6     -50.4138      1.00000
      7     -49.6127      1.00000
      8     -49.3981      1.00000
      9     -49.2153      1.00000
     10     -49.1671      1.00000
     11     -49.0580      1.00000
     12     -48.7821      1.00000
     13     -16.6001      1.00000
     14     -16.5363      1.00000
     15     -16.0039      1.00000
     16     -15.9209      1.00000
     17      -7.7714      1.00000
     18      -7.6082      1.00000
     19      -7.3257      1.00000
[...]
 -0.013   0.000  -0.000   0.000   0.000   0.000   0.003   0.000   0.000   0.000  -0.000   0.000   0.000   0.000  -7.865   0.000
 -0.000   0.000  -0.000   0.000  -0.000   0.000   0.000   0.000   0.000   0.000   0.000   0.000   0.000   0.000   0.000   0.000
  0.000   0.000  -0.000   0.000   0.013   0.000  -0.000   0.000   0.000   0.000  -0.003   0.000   0.000   0.000   0.000   0.020
 -0.000   0.000   0.013   0.000   0.000   0.000   0.000   0.000  -0.003   0.000  -0.000   0.000  -0.000   0.041  -0.000   0.000
 -0.000   0.000  -0.000   0.000  -0.000   0.000  -0.000   0.000  -0.000   0.000  -0.000   0.000   0.000   0.000  -0.000   0.000
 -0.000   0.000  -0.000   0.000  -0.000   0.000  -0.000   0.000  -0.000   0.000  -0.000   0.000   0.000   0.000  -0.000   0.000
 total augmentation occupancy for first ion, spin component:           1
  1.992   0.000   0.000  -0.029   0.000   0.000   0.000  -0.022   0.000  -0.000   0.000   0.000   0.020   0.000   0.000   0.000
  0.000   1.992   0.000   0.000  -0.029   0.000   0.000   0.000   0.000  -0.000   0.023  -0.000   0.000   0.000  -0.000  -0.022
 -0.000   0.000   1.992  -0.000   0.000  -0.029   0.000  -0.000   0.000   0.022   0.000   0.000   0.000   0.000  -0.020   0.000
 -0.029   0.000  -0.000   0.201   0.000   0.000   0.000  -0.319   0.000   0.000   0.000  -0.000   0.326   0.000  -0.000   0.000
  0.000  -0.029   0.000   0.000   0.168   0.000  -0.000   0.000   0.000   0.000   0.239   0.000   0.000   0.000   0.000  -0.282
  0.000  -0.000  -0.029  -0.000   0.000   0.201   0.000   0.000   0.000   0.319   0.000  -0.000  -0.000  -0.000  -0.326   0.000
  0.000   0.000   0.000   0.000  -0.000   0.000   0.894   0.000   0.000  -0.000   0.000  -0.673   0.000   0.000   0.000  -0.000
 -0.022   0.000  -0.000  -0.319  -0.000   0.000   0.000   2.396   0.000   0.000   0.000   0.000  -2.063   0.000   0.000   0.000
  0.000  -0.000   0.000   0.000  -0.000  -0.000   0.000   0.000   1.507   0.000   0.000   0.000   0.000  -0.748  -0.000   0.000
 -0.000   0.000   0.022   0.000   0.000   0.319  -0.000   0.000   0.000   2.396   0.000   0.000  -0.000   0.000  -2.063   0.000
  0.000   0.023  -0.000   0.000   0.239   0.000   0.000  -0.000   0.000   0.000   3.165  -0.000   0.000   0.000   0.000  -2.389
  0.000  -0.000   0.000   0.000   0.000   0.000  -0.673   0.000  -0.000   0.000  -0.000   1.691  -0.000   0.000   0.000   0.000
  0.020   0.000   0.000   0.326   0.000  -0.000   0.000  -2.063   0.000  -0.000   0.000  -0.000   2.769   0.000   0.000   0.000
  0.000   0.000   0.000   0.000   0.000  -0.000   0.000   0.000  -0.748   0.000   0.000  -0.000   0.000   1.292  -0.000  -0.000
  0.000   0.000  -0.020  -0.000   0.000  -0.326   0.000   0.000   0.000  -2.063   0.000   0.000  -0.000  -0.000   2.769   0.000
  0.000  -0.022   0.000   0.000  -0.282   0.000  -0.000   0.000   0.000  -0.000  -2.389   0.000   0.000  -0.000   0.000   2.704
  0.000   0.000   0.000   0.000   0.000   0.000   0.000   0.000   0.041  -0.000   0.000  -0.000  -0.000  -0.120   0.000   0.000
  0.000   0.000   0.000   0.000   0.000   0.000   0.000   0.000   0.005   0.000  -0.000   0.000   0.000   0.000   0.000   0.000
 total augmentation occupancy for first ion, spin component:           2
  0.000  -0.000   0.000   0.000  -0.000   0.000  -0.000  -0.000   0.000   0.000   0.000   0.000   0.000  -0.000   0.000  -0.000
 -0.000   0.000   0.000   0.000   0.000   0.000   0.000   0.000   0.000  -0.000   0.000   0.000  -0.000   0.000   0.000   0.000
  0.000   0.000   0.000   0.000  -0.000  -0.000  -0.000   0.000   0.000  -0.000  -0.000   0.000   0.000  -0.000   0.000   0.000
  0.000   0.000   0.000  -0.000   0.000   0.000   0.000   0.000  -0.000   0.000  -0.000  -0.000  -0.000   0.000   0.000   0.000
 -0.000   0.000  -0.000   0.000  -0.000   0.000  -0.000  -0.000   0.000  -0.001   0.000   0.000   0.000   0.000   0.001   0.000
  0.000   0.000   0.000   0.000   0.000   0.000   0.000  -0.000  -0.000   0.000   0.001  -0.000   0.000  -0.000   0.000  -0.000
 -0.000   0.000  -0.000   0.000   0.000   0.000   0.000   0.003   0.000   0.000   0.000   0.000  -0.005   0.000  -0.000   0.000
 -0.000   0.000   0.000   0.000  -0.000   0.000   0.003  -0.000   0.000   0.000   0.000  -0.003  -0.000  -0.000   0.000  -0.000
  0.000   0.000   0.000  -0.000   0.000  -0.000   0.000   0.000   0.000  -0.002   0.000   0.000  -0.000   0.000   0.000   0.000
  0.000  -0.000   0.000   0.000  -0.001   0.000   0.000   0.000  -0.002   0.000  -0.008  -0.000   0.000   0.004   0.000   0.000
  0.000  -0.000  -0.000  -0.000  -0.000   0.001   0.000   0.000   0.000  -0.008  -0.000   0.000  -0.000   0.000   0.012  -0.000
  0.000   0.000   0.000  -0.000   0.000  -0.000   0.000  -0.003  -0.000  -0.000   0.000   0.000   0.002   0.000   0.000   0.000
 -0.000  -0.000   0.000  -0.000   0.000   0.000  -0.005   0.000  -0.000   0.000  -0.000   0.002  -0.000   0.000   0.000   0.000
 -0.000   0.000  -0.000   0.000   0.000  -0.000   0.000  -0.000  -0.000   0.004   0.000   0.000   0.000  -0.000  -0.001  -0.000
 -0.000   0.000   0.000   0.000   0.001  -0.000  -0.000   0.000   0.000   0.000   0.012   0.000   0.000  -0.001   0.000  -0.004
 -0.000   0.000   0.000   0.000   0.000  -0.000   0.000  -0.000   0.000   0.000   0.000   0.000   0.000   0.000  -0.004   0.000
 -0.000   0.000   0.000  -0.000   0.000  -0.000   0.000  -0.000   0.000   0.000  -0.000  -0.000   0.000  -0.000  -0.000   0.000
  0.000   0.000  -0.000   0.000   0.000   0.000   0.000  -0.000  -0.000  -0.000   0.000   0.000   0.000  -0.000   0.000  -0.000
 total augmentation occupancy for first ion, spin component:           3
  0.000   0.000   0.000   0.000  -0.000   0.000  -0.000   0.000  -0.000   0.000  -0.000   0.000   0.000   0.000   0.000   0.000
  0.000   0.000   0.000   0.000   0.000  -0.000   0.000   0.000   0.000   0.000   0.000  -0.000  -0.000   0.000  -0.000   0.000
  0.000   0.000   0.000  -0.000   0.000   0.000   0.000   0.000   0.000   0.000  -0.000  -0.000   0.000  -0.000   0.000   0.000
  0.000   0.000   0.000   0.000   0.000   0.000   0.000   0.000   0.000  -0.000   0.001  -0.000   0.000   0.000   0.000  -0.000
 -0.000   0.000   0.000   0.000   0.000  -0.000   0.000   0.001   0.000  -0.000   0.000   0.000  -0.001   0.000   0.000   0.000
  0.000  -0.000   0.000   0.000  -0.000   0.000  -0.000   0.000  -0.000   0.000   0.000   0.000   0.000   0.000   0.000  -0.000
 -0.000   0.000   0.000   0.000   0.000  -0.000   0.000  -0.000   0.000   0.003   0.000   0.000   0.000   0.000  -0.005   0.000
  0.000   0.000   0.000   0.000   0.001   0.000  -0.000   0.000  -0.002  -0.000   0.008   0.000   0.000   0.004   0.000  -0.000
 -0.000   0.000   0.000   0.000   0.000  -0.000  -0.000  -0.002   0.000  -0.000   0.000  -0.000   0.000   0.000   0.000   0.000
 -0.000   0.000   0.000   0.000  -0.000   0.000   0.003   0.000  -0.000   0.000   0.000  -0.003  -0.000   0.000   0.000  -0.000
 -0.000   0.000  -0.000   0.001   0.000   0.000   0.000   0.008   0.000   0.000   0.000   0.000  -0.012   0.000  -0.000   0.000
  0.000  -0.000  -0.000  -0.000   0.000   0.000   0.000   0.000   0.000  -0.003   0.000   0.000  -0.000   0.000   0.002  -0.000
  0.000  -0.000  -0.000  -0.000  -0.001   0.000   0.000   0.000   0.000  -0.000  -0.012  -0.000   0.000  -0.001   0.000   0.004
  0.000   0.000  -0.000   0.000   0.000   0.000   0.000   0.004   0.000   0.000   0.000   0.000  -0.001   0.000  -0.000   0.000
  0.000  -0.000  -0.000   0.000   0.000   0.000  -0.005   0.000   0.000   0.000  -0.000   0.002  -0.000  -0.000   0.000   0.000
  0.000   0.000   0.000  -0.000   0.000  -0.000   0.000  -0.000   0.000  -0.000   0.000   0.000   0.004   0.000   0.000   0.000
 -0.000   0.000  -0.000   0.000   0.000  -0.000   0.000   0.000   0.000   0.000   0.000   0.000  -0.000   0.000  -0.000   0.000
  0.000   0.000   0.000  -0.000   0.000   0.000   0.000  -0.000   0.000   0.000   0.000   0.000   0.000   0.000  -0.000   0.000
 total augmentation occupancy for first ion, spin component:           4
 -0.001   0.000  -0.000  -0.004   0.000  -0.000  -0.000  -0.002   0.000   0.000   0.000   0.000   0.002   0.000  -0.000  -0.000
  0.000  -0.001   0.000   0.000  -0.004   0.000   0.000  -0.000   0.000   0.000   0.003  -0.000   0.000  -0.000   0.000  -0.002
  0.000   0.000  -0.001   0.000   0.000  -0.004   0.000   0.000  -0.000   0.002  -0.000   0.000  -0.000   0.000  -0.002   0.000
 -0.004   0.000   0.000   0.009   0.000  -0.000  -0.000  -0.019   0.000   0.000   0.000   0.000   0.014   0.000  -0.000   0.000
  0.000  -0.004   0.000   0.000   0.002   0.000  -0.000   0.000  -0.000   0.000  -0.023  -0.000   0.000   0.000   0.000   0.012
 -0.000   0.000  -0.004   0.000  -0.000   0.009   0.000   0.000   0.000   0.019   0.000   0.000  -0.000   0.000  -0.014  -0.000
 -0.000   0.000   0.000   0.000  -0.000   0.000   0.168   0.000   0.000   0.000   0.000   0.080  -0.000   0.000   0.000  -0.000
 -0.002   0.000   0.000  -0.019   0.000   0.000  -0.000   0.868   0.000  -0.000   0.000  -0.000  -0.147   0.000   0.000   0.000
  0.000   0.000   0.000   0.000  -0.000   0.000   0.000   0.000   0.664  -0.000   0.000  -0.000   0.000  -0.104  -0.000   0.000
  0.000   0.000   0.002   0.000   0.000   0.019   0.000  -0.000  -0.000   0.868  -0.000   0.000  -0.000  -0.000  -0.147  -0.000
  0.000   0.003   0.000   0.000  -0.023   0.000   0.000   0.000  -0.000   0.000   1.774  -0.000   0.000   0.000   0.000  -0.589
 -0.000  -0.000   0.000  -0.000  -0.000   0.000   0.080   0.000   0.000   0.000  -0.000  -0.244   0.000   0.000   0.000   0.000
  0.002   0.000  -0.000   0.014   0.000  -0.000   0.000  -0.147   0.000  -0.000   0.000   0.000  -0.190   0.000  -0.000   0.000
  0.000  -0.000   0.000   0.000   0.000   0.000   0.000   0.000  -0.104  -0.000   0.000   0.000   0.000  -0.156   0.000   0.000
 -0.000   0.000  -0.002  -0.000   0.000  -0.014   0.000   0.000  -0.000  -0.147   0.000   0.000   0.000  -0.000  -0.190   0.000
  0.000  -0.002  -0.000  -0.000   0.012   0.000  -0.000   0.000   0.000   0.000  -0.589   0.000   0.000  -0.000   0.000   0.049
  0.000   0.000   0.000   0.000   0.000   0.000  -0.000   0.000   0.028   0.000   0.000   0.000   0.000   0.017  -0.000   0.000
  0.000   0.000   0.000   0.000   0.000   0.000   0.000   0.000   0.002   0.000   0.000   0.000   0.000  -0.004  -0.000   0.000


------------------------ aborting loop because EDIFF is reached ----------------------------------------





 total charge     

# of ion     s       p       d       tot
----------------------------------------
  1        0.320   6.330   5.223  11.873
  2        0.320   6.330   5.223  11.873
  3        1.467   2.337   0.074   3.878
  4        1.467   2.337   0.074   3.878
------------------------------------------------
tot        3.574  17.334  10.594  31.501



 magnetization (x)

# of ion     s       p       d       tot
----------------------------------------
  1        0.001  -0.001  -0.007  -0.006
  2       -0.001   0.001   0.007   0.006
  3        0.000   0.000  -0.000   0.000
  4       -0.000  -0.000   0.000  -0.000
------------------------------------------------
tot        0.000   0.000  -0.000  -0.000



 magnetization (y)

# of ion     s       p       d       tot
----------------------------------------
  1        0.001  -0.000  -0.003  -0.003
  2       -0.001   0.000   0.003   0.003
  3       -0.000   0.001   0.000   0.000
  4        0.000  -0.001  -0.000  -0.000
------------------------------------------------
tot       -0.000   0.000   0.000   0.000



 magnetization (z)

# of ion     s       p       d       tot
----------------------------------------
  1        0.010   0.012   1.485   1.506
  2        0.010   0.012   1.485   1.506
  3       -0.003  -0.122   0.006  -0.119
  4       -0.003  -0.122   0.006  -0.119
------------------------------------------------
tot        0.014  -0.221   2.981   2.774



--------------------------------------------------------------------------------------------------------



  FREE ENERGIE OF THE ION-ELECTRON SYSTEM (eV)
  ---------------------------------------------------
  free  energy   TOTEN  =       -26.37604341 eV

  energy  without entropy=      -26.37590364  energy(sigma->0) =      -26.37597353



--------------------------------------------------------------------------------------------------------




--------------------------------------------------------------------------------------------------------


     LOOP+:  cpu time 2147.3000: real time 2147.3743
    4ORBIT:  cpu time    0.0000: real time    0.0000

 Spin-Orbit-Coupling matrix elements

 Ion:    1  E_soc:     -0.0295389
 l=   1
     0.0000000    -0.0036664    -0.0036604
    -0.0036664     0.0000000    -0.0036664
    -0.0036604    -0.0036664     0.0000000
 l=   2
     0.0000000    -0.0002669     0.0000000    -0.0002669    -0.0009276
    -0.0002669     0.0000000    -0.0008093    -0.0002996    -0.0001983
     0.0000000    -0.0008093     0.0000000    -0.0008093     0.0000000
    -0.0002669    -0.0002996    -0.0008093     0.0000000    -0.0001983
    -0.0009276    -0.0001983     0.0000000    -0.0001983     0.0000000
 l=   3
     0.0000000     0.0000000     0.0000000     0.0000000     0.0000000     0.0000000     0.0000000
     0.0000000     0.0000000     0.0000000     0.0000000     0.0000000     0.0000000     0.0000000
     0.0000000     0.0000000     0.0000000     0.0000000     0.0000000     0.0000000     0.0000000
     0.0000000     0.0000000     0.0000000     0.0000000     0.0000000     0.0000000     0.0000000
     0.0000000     0.0000000     0.0000000     0.0000000     0.0000000     0.0000000     0.0000000
     0.0000000     0.0000000     0.0000000     0.0000000     0.0000000     0.0000000     0.0000000
     0.0000000     0.0000000     0.0000000     0.0000000     0.0000000     0.0000000     0.0000000

 Ion:    2  E_soc:     -0.0295389
 l=   1
     0.0000000    -0.0036664    -0.0036604
    -0.0036664     0.0000000    -0.0036664
    -0.0036604    -0.0036664     0.0000000
 l=   2
     0.0000000    -0.0002669     0.0000000    -0.0002669    -0.0009276
    -0.0002669     0.0000000    -0.0008093    -0.0002996    -0.0001983
     0.0000000    -0.0008093     0.0000000    -0.0008093     0.0000000
    -0.0002669    -0.0002996    -0.0008093     0.0000000    -0.0001983
    -0.0009276    -0.0001983     0.0000000    -0.0001983     0.0000000
 l=   3
     0.0000000     0.0000000     0.0000000     0.0000000     0.0000000     0.0000000     0.0000000
     0.0000000     0.0000000     0.0000000     0.0000000     0.0000000     0.0000000     0.0000000
     0.0000000     0.0000000     0.0000000     0.0000000     0.0000000     0.0000000     0.0000000
     0.0000000     0.0000000     0.0000000     0.0000000     0.0000000     0.0000000     0.0000000
     0.0000000     0.0000000     0.0000000     0.0000000     0.0000000     0.0000000     0.0000000
     0.0000000     0.0000000     0.0000000     0.0000000     0.0000000     0.0000000     0.0000000
     0.0000000     0.0000000     0.0000000     0.0000000     0.0000000     0.0000000     0.0000000

 Ion:    3  E_soc:     -0.0395098
 l=   1
     0.0000000    -0.0066404    -0.0064705
    -0.0066404     0.0000000    -0.0066404
    -0.0064705    -0.0066404     0.0000000
 l=   2
     0.0000000    -0.0000008     0.0000000    -0.0000008    -0.0000031
    -0.0000008     0.0000000    -0.0000049     0.0000066     0.0000021
     0.0000000    -0.0000049     0.0000000    -0.0000049     0.0000000
    -0.0000008     0.0000066    -0.0000049     0.0000000     0.0000021
    -0.0000031     0.0000021     0.0000000     0.0000021     0.0000000
 l=   3
     0.0000000     0.0000000     0.0000000     0.0000000     0.0000000     0.0000000     0.0000000
     0.0000000     0.0000000     0.0000000     0.0000000     0.0000000     0.0000000     0.0000000
     0.0000000     0.0000000     0.0000000     0.0000000     0.0000000     0.0000000     0.0000000
     0.0000000     0.0000000     0.0000000     0.0000000     0.0000000     0.0000000     0.0000000
     0.0000000     0.0000000     0.0000000     0.0000000     0.0000000     0.0000000     0.0000000
     0.0000000     0.0000000     0.0000000     0.0000000     0.0000000     0.0000000     0.0000000
     0.0000000     0.0000000     0.0000000     0.0000000     0.0000000     0.0000000     0.0000000

 Ion:    4  E_soc:     -0.0395098
 l=   1
     0.0000000    -0.0066404    -0.0064705
    -0.0066404     0.0000000    -0.0066404
    -0.0064705    -0.0066404     0.0000000
 l=   2
     0.0000000    -0.0000008     0.0000000    -0.0000008    -0.0000031
    -0.0000008     0.0000000    -0.0000049     0.0000066     0.0000021
     0.0000000    -0.0000049     0.0000000    -0.0000049     0.0000000
    -0.0000008     0.0000066    -0.0000049     0.0000000     0.0000021
    -0.0000031     0.0000021     0.0000000     0.0000021     0.0000000
 l=   3
     0.0000000     0.0000000     0.0000000     0.0000000     0.0000000     0.0000000     0.0000000
     0.0000000     0.0000000     0.0000000     0.0000000     0.0000000     0.0000000     0.0000000
     0.0000000     0.0000000     0.0000000     0.0000000     0.0000000     0.0000000     0.0000000
     0.0000000     0.0000000     0.0000000     0.0000000     0.0000000     0.0000000     0.0000000
     0.0000000     0.0000000     0.0000000     0.0000000     0.0000000     0.0000000     0.0000000
     0.0000000     0.0000000     0.0000000     0.0000000     0.0000000     0.0000000     0.0000000
     0.0000000     0.0000000     0.0000000     0.0000000     0.0000000     0.0000000     0.0000000



 total charge     

# of ion     s       p       d       tot
----------------------------------------
  1        0.320   6.330   5.223  11.873
  2        0.320   6.330   5.223  11.873
  3        1.467   2.337   0.074   3.878
  4        1.467   2.337   0.074   3.878
------------------------------------------------
tot        3.574  17.334  10.594  31.501



 magnetization (x)

# of ion     s       p       d       tot
----------------------------------------
  1        0.001  -0.001  -0.007  -0.006
  2       -0.001   0.001   0.007   0.006
  3        0.000   0.000  -0.000   0.000
  4       -0.000  -0.000   0.000  -0.000
------------------------------------------------
tot        0.000   0.000  -0.000  -0.000



 magnetization (y)

# of ion     s       p       d       tot
----------------------------------------
  1        0.001  -0.000  -0.003  -0.003
  2       -0.001   0.000   0.003   0.003
  3       -0.000   0.001   0.000   0.000
  4        0.000  -0.001  -0.000  -0.000
------------------------------------------------
tot       -0.000   0.000   0.000   0.000



 magnetization (z)

# of ion     s       p       d       tot
----------------------------------------
  1        0.010   0.012   1.485   1.506
  2        0.010   0.012   1.485   1.506
  3       -0.003  -0.122   0.006  -0.119
  4       -0.003  -0.122   0.006  -0.119
------------------------------------------------
tot        0.014  -0.221   2.981   2.774


 total amount of memory used by VASP on root node   304932. kBytes
========================================================================

   base      :      30000. kBytes
   nonl-proj :     140214. kBytes
   fftplans  :       8150. kBytes
   grid      :      48384. kBytes
   one-center:        248. kBytes
   wavefun   :      77936. kBytes

  
  
 General timing and accounting informations for this job:
 ========================================================
  
                  Total CPU time used (sec):     2169.344
                            User time (sec):     1789.756
                          System time (sec):      379.588
                         Elapsed time (sec):     2171.476
  
                   Maximum memory used (kb):      515576.
                   Average memory used (kb):           0.
  
                          Minor page faults:     31150033
                          Major page faults:           20
                 Voluntary context switches:         2000
