       N       E                     dE             d eps       ncg     rms          rms(c)
DAV:   1     0.605878898749E+03    0.60588E+03   -0.23785E+04 10208   0.110E+03
DAV:   2     0.690924917177E+02   -0.53679E+03   -0.50268E+03 14328   0.261E+02
DAV:   3    -0.220985245956E+02   -0.91191E+02   -0.87847E+02 11592   0.114E+02
DAV:   4    -0.282281525204E+02   -0.61296E+01   -0.60947E+01 17448   0.242E+01
DAV:   5    -0.283999843679E+02   -0.17183E+00   -0.17150E+00 15776   0.409E+00    0.236E+01
DAV:   6    -0.424756769877E+02   -0.14076E+02   -0.81038E+01 17600   0.571E+01    0.363E+01
DAV:   7    -0.272092140440E+02    0.15266E+02   -0.35313E+01 14128   0.199E+01    0.141E+01
DAV:   8    -0.325815511403E+02   -0.53723E+01   -0.29633E+01 15944   0.143E+01    0.354E+01
DAV:   9    -0.281781271333E+02    0.44034E+01   -0.17784E+01 16384   0.111E+01    0.212E+01
DAV:  10    -0.273221631634E+02    0.85596E+00   -0.69149E+00 16776   0.147E+01    0.856E+00
DAV:  11    -0.280236171583E+02   -0.70145E+00   -0.82427E+00 15752   0.650E+00    0.215E+01
DAV:  12    -0.269985895921E+02    0.10250E+01   -0.39780E+00 15368   0.382E+00    0.342E+00
DAV:  13    -0.695833716068E+02   -0.42585E+02   -0.39661E+02 17976   0.359E+00    0.493E+01
DAV:  14    -0.272532796946E+03   -0.20295E+03   -0.32767E+03 13784   0.336E+01    0.420E+01
DAV:  15    -0.253096661235E+02    0.24722E+03   -0.13723E+03 12872   0.306E+01    0.766E+00
DAV:  16    -0.266969618847E+02   -0.13873E+01   -0.51237E+00 14200   0.247E+00    0.238E+00
DAV:  17    -0.269904654386E+02   -0.29350E+00   -0.11701E+00 15936   0.150E+00    0.263E+00
DAV:  18    -0.270183230751E+02   -0.27858E-01   -0.14035E-01 14944   0.825E-01    0.122E+00
DAV:  19    -0.270400537893E+02   -0.21731E-01   -0.14457E-02 14624   0.486E-01    0.149E+00
DAV:  20    -0.270802602868E+02   -0.40206E-01   -0.24338E-02 14760   0.573E-01    0.236E+00
DAV:  21    -0.270935492499E+02   -0.13289E-01   -0.38710E-02 14488   0.629E-01    0.815E-01
DAV:  22    -0.271142521516E+02   -0.20703E-01   -0.14331E-02 14208   0.468E-01    0.132E+00
DAV:  23    -0.271221634253E+02   -0.79113E-02   -0.13378E-02 13632   0.515E-01    0.126E+00
DAV:  24    -0.271187604016E+02    0.34030E-02   -0.16022E-02 13896   0.514E-01    0.896E-01
DAV:  25    -0.271277202134E+02   -0.89598E-02   -0.94418E-03 14536   0.351E-01    0.618E-01
DAV:  26    -0.271343111036E+02   -0.65909E-02   -0.14986E-02 12984   0.461E-01    0.768E-01
DAV:  27    -0.271318384038E+02    0.24727E-02   -0.17125E-02 12264   0.510E-01    0.717E-01
DAV:  28    -0.271325687309E+02   -0.73033E-03   -0.18639E-03 12664   0.195E-01    0.623E-01
DAV:  29    -0.271324049400E+02    0.16379E-03   -0.13135E-03 12808   0.150E-01    0.613E-01
DAV:  30    -0.271326133913E+02   -0.20845E-03   -0.15428E-04 12144   0.683E-02    0.614E-01
DAV:  31    -0.271323152206E+02    0.29817E-03   -0.69054E-04 13112   0.160E-01    0.630E-01
DAV:  32    -0.271359060164E+02   -0.35908E-02   -0.24440E-03 12640   0.256E-01    0.647E-01
DAV:  33    -0.271365499186E+02   -0.64390E-03   -0.34093E-03 13024   0.305E-01    0.626E-01
DAV:  34    -0.271377931680E+02   -0.12432E-02   -0.59334E-04 12760   0.128E-01    0.625E-01
DAV:  35    -0.271373181117E+02    0.47506E-03   -0.40829E-04 12584   0.104E-01    0.625E-01
DAV:  36    -0.271373633792E+02   -0.45268E-04   -0.42490E-04 12312   0.873E-02    0.623E-01
DAV:  37    -0.271378887335E+02   -0.52535E-03   -0.31797E-04 11688   0.799E-02    0.624E-01
DAV:  38    -0.271380919154E+02   -0.20318E-03   -0.34928E-04 11432   0.871E-02    0.629E-01
DAV:  39    -0.271402754147E+02   -0.21835E-02   -0.88281E-04 11696   0.132E-01    0.636E-01
DAV:  40    -0.271384429972E+02    0.18324E-02   -0.77030E-04 12064   0.120E-01    0.640E-01
DAV:  41    -0.271387295123E+02   -0.28652E-03   -0.67593E-05 10760   0.386E-02    0.641E-01
DAV:  42    -0.271403402415E+02   -0.16107E-02   -0.25800E-03 11272   0.189E-01    0.644E-01
DAV:  43    -0.271394935635E+02    0.84668E-03   -0.33799E-03 11376   0.228E-01    0.646E-01
DAV:  44    -0.271383581213E+02    0.11354E-02   -0.78270E-04 11488   0.120E-01    0.648E-01
DAV:  45    -0.271387478334E+02   -0.38971E-03   -0.10293E-04 11000   0.515E-02    0.648E-01
DAV:  46    -0.271380167132E+02    0.73112E-03   -0.13123E-04 11032   0.560E-02    0.648E-01
DAV:  47    -0.271379673660E+02    0.49347E-04   -0.18923E-04 11248   0.573E-02    0.647E-01
DAV:  48    -0.271382042730E+02   -0.23691E-03   -0.34159E-04 11112   0.688E-02    0.647E-01
DAV:  49    -0.271381859144E+02    0.18359E-04   -0.41474E-04 10104   0.779E-02    0.647E-01
DAV:  50    -0.271397583416E+02   -0.15724E-02   -0.12340E-03  9800   0.137E-01    0.647E-01
DAV:  51    -0.271406053602E+02   -0.84702E-03   -0.60321E-03 11008   0.270E-01    0.643E-01
DAV:  52    -0.271389495117E+02    0.16558E-02   -0.68239E-03 11008   0.317E-01    0.644E-01
DAV:  53    -0.271380176816E+02    0.93183E-03   -0.62891E-04 11024   0.121E-01    0.648E-01
DAV:  54    -0.271385808563E+02   -0.56317E-03   -0.48322E-04 11248   0.101E-01    0.650E-01
DAV:  55    -0.271376851355E+02    0.89572E-03   -0.52648E-04 11008   0.969E-02    0.651E-01
DAV:  56    -0.271211942895E+02    0.16491E-01   -0.28671E-01 12296   0.193E+00    0.897E-01
DAV:  57    -0.271248966383E+02   -0.37023E-02   -0.13149E-01 11936   0.179E+00    0.804E-01
DAV:  58    -0.271267343142E+02   -0.18377E-02   -0.89632E-02 13096   0.913E-01    0.639E-01
DAV:  59    -0.271366230191E+02   -0.98887E-02   -0.14140E-02 12488   0.598E-01    0.526E-01
DAV:  60    -0.271383950589E+02   -0.17720E-02   -0.40248E-03 11432   0.377E-01    0.397E-01
DAV:  61    -0.271368593390E+02    0.15357E-02   -0.12547E-02 12184   0.370E-01    0.369E-01
DAV:  62    -0.271365876075E+02    0.27173E-03   -0.58962E-03 13632   0.272E-01    0.394E-01
DAV:  63    -0.271365315533E+02    0.56054E-04   -0.31055E-03 12464   0.225E-01    0.417E-01
DAV:  64    -0.271368530038E+02   -0.32145E-03   -0.15737E-03 11984   0.180E-01    0.410E-01
DAV:  65    -0.271375683211E+02   -0.71532E-03   -0.57808E-04 11616   0.132E-01    0.391E-01
DAV:  66    -0.271384302615E+02   -0.86194E-03   -0.13099E-03 12232   0.144E-01    0.369E-01
DAV:  67    -0.271383775526E+02    0.52709E-04   -0.16479E-04 12264   0.600E-02    0.365E-01
DAV:  68    -0.271384236557E+02   -0.46103E-04   -0.11396E-04 11544   0.534E-02    0.370E-01
DAV:  69    -0.271384850067E+02   -0.61351E-04   -0.36522E-05 11504   0.307E-02    0.373E-01
DAV:  70    -0.271384249758E+02    0.60031E-04   -0.18266E-04 11608   0.619E-02    0.378E-01
DAV:  71    -0.271381861310E+02    0.23884E-03   -0.52872E-02 13416   0.915E-01    0.277E-01
DAV:  72    -0.271403007000E+02   -0.21146E-02   -0.58895E-03 14264   0.349E-01    0.460E-01
DAV:  73    -0.271409325947E+02   -0.63189E-03   -0.21326E-03 13048   0.205E-01    0.375E-01
DAV:  74    -0.271405722966E+02    0.36030E-03   -0.26534E-03 12736   0.188E-01    0.436E-01
DAV:  75    -0.271409907477E+02   -0.41845E-03   -0.26122E-03 12744   0.165E-01    0.415E-01
DAV:  76    -0.271418228398E+02   -0.83209E-03   -0.30441E-03 13224   0.229E-01    0.360E-01
DAV:  77    -0.271416643381E+02    0.15850E-03   -0.92225E-04 11744   0.140E-01    0.335E-01
DAV:  78    -0.271404929660E+02    0.11714E-02   -0.24529E-03 13280   0.187E-01    0.374E-01
DAV:  79    -0.271373995230E+02    0.30934E-02   -0.17797E-02 14064   0.381E-01    0.450E-01
DAV:  80    -0.271363340549E+02    0.10655E-02   -0.12315E-02 13464   0.340E-01    0.473E-01
DAV:  81    -0.271393500950E+02   -0.30160E-02   -0.61278E-03 12944   0.383E-01    0.359E-01
DAV:  82    -0.271396961479E+02   -0.34605E-03   -0.35167E-04 12288   0.102E-01    0.323E-01
DAV:  83    -0.271394375390E+02    0.25861E-03   -0.42487E-03 12456   0.257E-01    0.300E-01
DAV:  84    -0.271381819373E+02    0.12556E-02   -0.10583E-02 13472   0.312E-01    0.315E-01
DAV:  85    -0.271384409645E+02   -0.25903E-03   -0.68897E-04 12384   0.136E-01    0.339E-01
DAV:  86    -0.271369448766E+02    0.14961E-02   -0.10704E-02 13032   0.320E-01    0.411E-01
DAV:  87    -0.271372465181E+02   -0.30164E-03   -0.16166E-02 14040   0.358E-01    0.413E-01
DAV:  88    -0.271391301695E+02   -0.18837E-02   -0.96137E-04 12264   0.169E-01    0.409E-01
DAV:  89    -0.271396597321E+02   -0.52956E-03   -0.85798E-04 12640   0.120E-01    0.407E-01
DAV:  90    -0.271400102524E+02   -0.35052E-03   -0.14632E-03 12792   0.124E-01    0.410E-01
DAV:  91    -0.271388124200E+02    0.11978E-02   -0.69694E-03 13504   0.286E-01    0.454E-01
DAV:  92    -0.271397912945E+02   -0.97887E-03   -0.36810E-04 12864   0.100E-01    0.466E-01
DAV:  93    -0.271393199646E+02    0.47133E-03   -0.34440E-04 13456   0.712E-02    0.466E-01
DAV:  94    -0.271392171699E+02    0.10279E-03   -0.50508E-05 12280   0.364E-02    0.477E-01
DAV:  95    -0.271390484493E+02    0.16872E-03   -0.60276E-05 13320   0.300E-02    0.479E-01
DAV:  96    -0.271396806146E+02   -0.63217E-03   -0.59681E-04 12568   0.868E-02    0.475E-01
DAV:  97    -0.271406191489E+02   -0.93853E-03   -0.15657E-03 14168   0.128E-01    0.453E-01
DAV:  98    -0.271408840782E+02   -0.26493E-03   -0.31746E-04 12952   0.666E-02    0.436E-01
DAV:  99    -0.271406455291E+02    0.23855E-03   -0.15938E-04 12088   0.566E-02    0.443E-01
DAV: 100    -0.271410193528E+02   -0.37382E-03   -0.25074E-04 12176   0.697E-02    0.437E-01
DAV: 101    -0.271413091543E+02   -0.28980E-03   -0.22539E-04 11928   0.617E-02    0.427E-01
DAV: 102    -0.271420796244E+02   -0.77047E-03   -0.82990E-04 13752   0.100E-01    0.416E-01
DAV: 103    -0.271422551030E+02   -0.17548E-03   -0.16337E-04 13112   0.501E-02    0.407E-01
DAV: 104    -0.271418718256E+02    0.38328E-03   -0.23518E-04 12896   0.589E-02    0.417E-01
DAV: 105    -0.271419827622E+02   -0.11094E-03   -0.10154E-04 11384   0.494E-02    0.417E-01
DAV: 106    -0.271420594524E+02   -0.76690E-04   -0.19517E-04 12392   0.576E-02    0.402E-01
DAV: 107    -0.271418217129E+02    0.23774E-03   -0.28650E-04 12184   0.557E-02    0.396E-01
DAV: 108    -0.271418481852E+02   -0.26472E-04   -0.20100E-05 12088   0.232E-02    0.398E-01
DAV: 109    -0.271416084129E+02    0.23977E-03   -0.45981E-04 12408   0.751E-02    0.389E-01
DAV: 110    -0.271418649303E+02   -0.25652E-03   -0.13297E-04 12416   0.525E-02    0.385E-01
DAV: 111    -0.271403975761E+02    0.14674E-02   -0.30544E-03 14336   0.192E-01    0.414E-01
DAV: 112    -0.271406690097E+02   -0.27143E-03   -0.21725E-04 13400   0.637E-02    0.441E-01
DAV: 113    -0.271408078456E+02   -0.13884E-03   -0.15488E-04 12784   0.477E-02    0.439E-01
DAV: 114    -0.271409056982E+02   -0.97853E-04   -0.65431E-05 11944   0.348E-02    0.441E-01
DAV: 115    -0.271413299479E+02   -0.42425E-03   -0.27912E-04 12624   0.751E-02    0.418E-01
DAV: 116    -0.271401830838E+02    0.11469E-02   -0.16143E-03 12968   0.148E-01    0.436E-01
DAV: 117    -0.271401174157E+02    0.65668E-04   -0.15485E-04 12208   0.557E-02    0.461E-01
DAV: 118    -0.271400849074E+02    0.32508E-04   -0.21436E-04 12056   0.535E-02    0.461E-01
DAV: 119    -0.271404073748E+02   -0.32247E-03   -0.14459E-04 12120   0.451E-02    0.464E-01
DAV: 120    -0.271409358928E+02   -0.52852E-03   -0.50790E-04 12976   0.787E-02    0.453E-01
DAV: 121    -0.271414753955E+02   -0.53950E-03   -0.11248E-03 12768   0.122E-01    0.434E-01
DAV: 122    -0.271411923953E+02    0.28300E-03   -0.18047E-04 12800   0.572E-02    0.433E-01
DAV: 123    -0.271413218290E+02   -0.12943E-03   -0.12082E-04 11216   0.502E-02    0.439E-01
DAV: 124    -0.271409427618E+02    0.37907E-03   -0.26540E-04 11984   0.655E-02    0.441E-01
DAV: 125    -0.271404668199E+02    0.47594E-03   -0.38390E-04 14232   0.664E-02    0.457E-01
DAV: 126    -0.271288734237E+02    0.11593E-01   -0.63280E-01 15672   0.260E+00    0.485E-01
DAV: 127    -0.271388682170E+02   -0.99948E-02   -0.14606E-02 13528   0.658E-01    0.539E-01
DAV: 128    -0.271399646098E+02   -0.10964E-02   -0.19524E-03 14560   0.187E-01    0.503E-01
DAV: 129    -0.271396154470E+02    0.34916E-03   -0.32154E-04 14704   0.826E-02    0.522E-01
DAV: 130    -0.271397339104E+02   -0.11846E-03   -0.44022E-05 12856   0.332E-02    0.518E-01
DAV: 131    -0.271390910725E+02    0.64284E-03   -0.31637E-04 13880   0.659E-02    0.526E-01
DAV: 132    -0.271374383550E+02    0.16527E-02   -0.11143E-03 13704   0.113E-01    0.558E-01
DAV: 133    -0.271367420020E+02    0.69635E-03   -0.48404E-04 13072   0.746E-02    0.578E-01
DAV: 134    -0.271417882273E+02   -0.50462E-02   -0.55945E-03 14016   0.286E-01    0.454E-01
DAV: 135    -0.271403928624E+02    0.13954E-02   -0.39908E-03 13888   0.195E-01    0.479E-01
DAV: 136    -0.271445349884E+02   -0.41421E-02   -0.14009E-02 14976   0.380E-01    0.370E-01
DAV: 137    -0.271444118690E+02    0.12312E-03   -0.69159E-03 14512   0.262E-01    0.384E-01
DAV: 138    -0.271466014047E+02   -0.21895E-02   -0.35800E-03 14832   0.199E-01    0.337E-01
DAV: 139    -0.271480421325E+02   -0.14407E-02   -0.12300E-03 14280   0.132E-01    0.284E-01
DAV: 140    -0.271488872300E+02   -0.84510E-03   -0.55995E-04 14152   0.884E-02    0.257E-01
DAV: 141    -0.271501998897E+02   -0.13127E-02   -0.20135E-03 14248   0.163E-01    0.202E-01
DAV: 142    -0.271505257964E+02   -0.32591E-03   -0.31340E-04 14520   0.807E-02    0.182E-01
DAV: 143    -0.271506306326E+02   -0.10484E-03   -0.15258E-04 12720   0.522E-02    0.179E-01
DAV: 144    -0.271504020878E+02    0.22854E-03   -0.33098E-04 12976   0.733E-02    0.175E-01
DAV: 145    -0.271500741633E+02    0.32792E-03   -0.11348E-03 13936   0.108E-01    0.171E-01
DAV: 146    -0.271498438949E+02    0.23027E-03   -0.52509E-04 14192   0.803E-02    0.179E-01
DAV: 147    -0.271498389927E+02    0.49022E-05   -0.95532E-05 13432   0.376E-02    0.182E-01
DAV: 148    -0.271501303598E+02   -0.29137E-03   -0.18867E-04 12928   0.562E-02    0.175E-01
DAV: 149    -0.271502128064E+02   -0.82447E-04   -0.76080E-04 15168   0.894E-02    0.170E-01
DAV: 150    -0.271503449721E+02   -0.13217E-03   -0.29898E-04 12784   0.576E-02    0.163E-01
DAV: 151    -0.271503080021E+02    0.36970E-04   -0.11059E-04 12128   0.464E-02    0.164E-01
DAV: 152    -0.271504380062E+02   -0.13000E-03   -0.24440E-04 12736   0.541E-02    0.156E-01
DAV: 153    -0.271504549500E+02   -0.16944E-04   -0.14534E-05 12064   0.197E-02    0.156E-01
DAV: 154    -0.271502003292E+02    0.25462E-03   -0.48653E-04 13848   0.896E-02    0.168E-01
DAV: 155    -0.271502420453E+02   -0.41716E-04   -0.39509E-05 12448   0.334E-02    0.167E-01
DAV: 156    -0.271500341833E+02    0.20786E-03   -0.10423E-03 13784   0.120E-01    0.175E-01
DAV: 157    -0.271498345738E+02    0.19961E-03   -0.33694E-04 13976   0.632E-02    0.186E-01
DAV: 158    -0.271499473170E+02   -0.11274E-03   -0.13813E-04 12632   0.532E-02    0.179E-01
DAV: 159    -0.271500070055E+02   -0.59688E-04   -0.16519E-04 13256   0.521E-02    0.178E-01
DAV: 160    -0.271496276591E+02    0.37935E-03   -0.38155E-04 13832   0.664E-02    0.198E-01
DAV: 161    -0.271501138058E+02   -0.48615E-03   -0.30091E-03 15344   0.209E-01    0.209E-01
DAV: 162    -0.271500751323E+02    0.38673E-04   -0.14585E-04 12904   0.598E-02    0.227E-01
DAV: 163    -0.271499881150E+02    0.87017E-04   -0.23669E-04 13840   0.639E-02    0.214E-01
DAV: 164    -0.271499179715E+02    0.70143E-04   -0.62097E-05 13632   0.276E-02    0.214E-01
DAV: 165    -0.271498822817E+02    0.35690E-04   -0.52614E-05 13000   0.279E-02    0.218E-01
DAV: 166    -0.271505403249E+02   -0.65804E-03   -0.49423E-03 14456   0.264E-01    0.225E-01
DAV: 167    -0.271505490458E+02   -0.87208E-05   -0.42484E-04 13568   0.901E-02    0.248E-01
DAV: 168    -0.271505338650E+02    0.15181E-04   -0.11166E-04 13800   0.396E-02    0.249E-01
DAV: 169    -0.271502279463E+02    0.30592E-03   -0.50612E-04 13952   0.669E-02    0.268E-01
DAV: 170    -0.271502901663E+02   -0.62220E-04   -0.33293E-05 12144   0.287E-02    0.267E-01
DAV: 171    -0.271500998041E+02    0.19036E-03   -0.15692E-02 14456   0.401E-01    0.173E-01
DAV: 172    -0.271507650650E+02   -0.66526E-03   -0.10893E-03 13016   0.137E-01    0.130E-01
DAV: 173    -0.271507479464E+02    0.17119E-04   -0.15445E-03 13472   0.118E-01    0.121E-01
DAV: 174    -0.271508649020E+02   -0.11696E-03   -0.59139E-04 13840   0.670E-02    0.133E-01
DAV: 175    -0.271509734116E+02   -0.10851E-03   -0.52419E-04 13616   0.797E-02    0.135E-01
DAV: 176    -0.271510159089E+02   -0.42497E-04   -0.70781E-04 13120   0.756E-02    0.114E-01
DAV: 177    -0.271510931907E+02   -0.77282E-04   -0.18410E-04 13824   0.451E-02    0.108E-01
DAV: 178    -0.271510592015E+02    0.33989E-04   -0.78040E-05 13464   0.367E-02    0.119E-01
DAV: 179    -0.271510557527E+02    0.34488E-05   -0.17506E-04 13544   0.493E-02    0.115E-01
DAV: 180    -0.271507632326E+02    0.29252E-03   -0.27047E-03 14824   0.166E-01    0.137E-01
DAV: 181    -0.271508671411E+02   -0.10391E-03   -0.11539E-03 14696   0.106E-01    0.164E-01
DAV: 182    -0.271508762486E+02   -0.91075E-05   -0.56467E-04 12952   0.841E-02    0.168E-01
DAV: 183    -0.271510056416E+02   -0.12939E-03   -0.28293E-04 13504   0.532E-02    0.165E-01
DAV: 184    -0.271510059702E+02   -0.32862E-06   -0.56072E-04 12944   0.711E-02    0.170E-01
DAV: 185    -0.271510220750E+02   -0.16105E-04   -0.83299E-04 13360   0.819E-02    0.171E-01
DAV: 186    -0.271509987582E+02    0.23317E-04   -0.11792E-03 13864   0.963E-02    0.169E-01
DAV: 187    -0.271511495505E+02   -0.15079E-03   -0.18781E-04 12952   0.504E-02    0.165E-01
DAV: 188    -0.271511405569E+02    0.89936E-05   -0.64500E-05 11456   0.420E-02    0.162E-01
DAV: 189    -0.271510234621E+02    0.11709E-03   -0.31466E-03 13440   0.176E-01    0.158E-01
DAV: 190    -0.271511706318E+02   -0.14717E-03   -0.47115E-03 14824   0.200E-01    0.144E-01
DAV: 191    -0.271516425974E+02   -0.47197E-03   -0.16195E-03 13816   0.134E-01    0.121E-01
DAV: 192    -0.271517463573E+02   -0.10376E-03   -0.14977E-03 13848   0.119E-01    0.102E-01
DAV: 193    -0.271518060440E+02   -0.59687E-04   -0.16124E-03 15096   0.125E-01    0.765E-02
DAV: 194    -0.271519500297E+02   -0.14399E-03   -0.31798E-04 13264   0.654E-02    0.663E-02
DAV: 195    -0.271518985051E+02    0.51525E-04   -0.40409E-04 14328   0.612E-02    0.587E-02
DAV: 196    -0.271513584413E+02    0.54006E-03   -0.24822E-03 13632   0.185E-01    0.873E-02
DAV: 197    -0.271516233281E+02   -0.26489E-03   -0.70650E-05 11920   0.515E-02    0.916E-02
DAV: 198    -0.271516718180E+02   -0.48490E-04   -0.83324E-05 11952   0.442E-02    0.818E-02
DAV: 199    -0.271516448520E+02    0.26966E-04   -0.22252E-05 11584   0.236E-02    0.790E-02
DAV: 200    -0.271515986637E+02    0.46188E-04   -0.12255E-04 12016   0.393E-02    0.762E-02
DAV: 201    -0.271515086218E+02    0.90042E-04   -0.41084E-04 13328   0.667E-02    0.661E-02
DAV: 202    -0.271515985471E+02   -0.89925E-04   -0.19349E-05 11312   0.261E-02    0.636E-02
DAV: 203    -0.271516122686E+02   -0.13722E-04   -0.48250E-06 10944   0.120E-02    0.638E-02
DAV: 204    -0.271515921548E+02    0.20114E-04   -0.29601E-05 12776   0.224E-02    0.620E-02
DAV: 205    -0.271516165069E+02   -0.24352E-04   -0.47165E-05 12848   0.301E-02    0.573E-02
DAV: 206    -0.271509171281E+02    0.69938E-03   -0.56044E-03 14024   0.254E-01    0.730E-02
DAV: 207    -0.271514005910E+02   -0.48346E-03   -0.18070E-04 12440   0.772E-02    0.836E-02
DAV: 208    -0.271514205849E+02   -0.19994E-04   -0.16861E-04 13968   0.518E-02    0.885E-02
DAV: 209    -0.271513595968E+02    0.60988E-04   -0.13006E-03 14440   0.116E-01    0.112E-01
DAV: 210    -0.271514830097E+02   -0.12341E-03   -0.13076E-03 14232   0.104E-01    0.115E-01
DAV: 211    -0.271515521005E+02   -0.69091E-04   -0.88560E-04 14632   0.101E-01    0.138E-01
DAV: 212    -0.271516386406E+02   -0.86540E-04   -0.95534E-05 12872   0.455E-02    0.143E-01
DAV: 213    -0.271516932360E+02   -0.54595E-04   -0.32338E-05 11944   0.260E-02    0.141E-01
DAV: 214    -0.271516524547E+02    0.40781E-04   -0.21404E-05 13176   0.165E-02    0.143E-01
DAV: 215    -0.271516821443E+02   -0.29690E-04   -0.27102E-05 12696   0.217E-02    0.138E-01
DAV: 216    -0.271514946466E+02    0.18750E-03   -0.27482E-03 13184   0.158E-01    0.152E-01
DAV: 217    -0.271518760851E+02   -0.38144E-03   -0.45529E-04 13272   0.906E-02    0.138E-01
DAV: 218    -0.271519297340E+02   -0.53649E-04   -0.14947E-04 13944   0.449E-02    0.121E-01
DAV: 219    -0.271519797009E+02   -0.49967E-04   -0.63245E-05 13696   0.320E-02    0.111E-01
DAV: 220    -0.271519839673E+02   -0.42664E-05   -0.44258E-05 12352   0.245E-02    0.107E-01
DAV: 221    -0.271518427712E+02    0.14120E-03   -0.18142E-04 13936   0.443E-02    0.114E-01
DAV: 222    -0.271518230199E+02    0.19751E-04   -0.46187E-05 13120   0.230E-02    0.117E-01
DAV: 223    -0.271518490402E+02   -0.26020E-04   -0.47084E-06 10304   0.129E-02    0.117E-01
DAV: 224    -0.271517813879E+02    0.67652E-04   -0.13399E-04 12648   0.401E-02    0.123E-01
DAV: 225    -0.271516416182E+02    0.13977E-03   -0.94868E-05 13600   0.317E-02    0.129E-01
DAV: 226    -0.271516529686E+02   -0.11350E-04   -0.17858E-05 12144   0.183E-02    0.130E-01
DAV: 227    -0.271516225771E+02    0.30391E-04   -0.34667E-05 11864   0.220E-02    0.130E-01
DAV: 228    -0.271516530175E+02   -0.30440E-04   -0.59000E-05 12808   0.243E-02    0.131E-01
DAV: 229    -0.271516645811E+02   -0.11564E-04   -0.31568E-05 12840   0.184E-02    0.130E-01
DAV: 230    -0.271516625146E+02    0.20665E-05   -0.27789E-06 10216   0.103E-02    0.130E-01
DAV: 231    -0.271516786593E+02   -0.16145E-04   -0.97550E-04 12600   0.102E-01    0.129E-01
DAV: 232    -0.271517554451E+02   -0.76786E-04   -0.32762E-05 12544   0.309E-02    0.128E-01
DAV: 233    -0.271518198818E+02   -0.64437E-04   -0.83735E-05 12848   0.359E-02    0.120E-01
DAV: 234    -0.271518274865E+02   -0.76048E-05   -0.41623E-06 12064   0.121E-02    0.118E-01
DAV: 235    -0.271517017156E+02    0.12577E-03   -0.34570E-04 12976   0.621E-02    0.113E-01
DAV: 236    -0.271516587420E+02    0.42974E-04   -0.16340E-04 13704   0.394E-02    0.110E-01
DAV: 237    -0.271516698541E+02   -0.11112E-04   -0.13886E-04 13640   0.369E-02    0.107E-01
DAV: 238    -0.271517370409E+02   -0.67187E-04   -0.15337E-04 13128   0.401E-02    0.965E-02
DAV: 239    -0.271517556446E+02   -0.18604E-04   -0.27532E-05 12192   0.200E-02    0.945E-02
DAV: 240    -0.271517783495E+02   -0.22705E-04   -0.95637E-06 11296   0.147E-02    0.931E-02
DAV: 241    -0.271514532646E+02    0.32508E-03   -0.57387E-03 13136   0.225E-01    0.986E-02
DAV: 242    -0.271519262352E+02   -0.47297E-03   -0.15926E-04 12784   0.723E-02    0.895E-02
DAV: 243    -0.271519671079E+02   -0.40873E-04   -0.13049E-04 13080   0.420E-02    0.875E-02
DAV: 244    -0.271519901480E+02   -0.23040E-04   -0.11780E-04 13384   0.326E-02    0.856E-02
DAV: 245    -0.271519401603E+02    0.49988E-04   -0.11667E-04 13080   0.300E-02    0.909E-02
DAV: 246    -0.271511658914E+02    0.77427E-03   -0.70808E-03 13496   0.277E-01    0.676E-02
DAV: 247    -0.271517235518E+02   -0.55766E-03   -0.16110E-04 12944   0.771E-02    0.552E-02
DAV: 248    -0.271517365177E+02   -0.12966E-04   -0.28071E-05 13360   0.264E-02    0.550E-02
DAV: 249    -0.271517452039E+02   -0.86862E-05   -0.17870E-05 13824   0.138E-02    0.561E-02
DAV: 250    -0.271517517510E+02   -0.65471E-05   -0.35001E-05 13208   0.176E-02    0.551E-02
DAV: 251    -0.271517590764E+02   -0.73254E-05   -0.78457E-04 12888   0.888E-02    0.621E-02
DAV: 252    -0.271518556605E+02   -0.96584E-04   -0.33354E-05 12592   0.312E-02    0.668E-02
DAV: 253    -0.271517836666E+02    0.71994E-04   -0.34726E-04 12712   0.580E-02    0.649E-02
DAV: 254    -0.271518349550E+02   -0.51288E-04   -0.85000E-05 13160   0.288E-02    0.669E-02
DAV: 255    -0.271517657652E+02    0.69190E-04   -0.45577E-05 12736   0.217E-02    0.690E-02
DAV: 256    -0.271517759439E+02   -0.10179E-04   -0.68746E-04 13848   0.790E-02    0.662E-02
DAV: 257    -0.271517491943E+02    0.26750E-04   -0.82077E-04 13824   0.733E-02    0.706E-02
DAV: 258    -0.271516342749E+02    0.11492E-03   -0.91205E-04 14128   0.748E-02    0.838E-02
DAV: 259    -0.271516375325E+02   -0.32576E-05   -0.49818E-04 13736   0.620E-02    0.732E-02
DAV: 260    -0.271517438517E+02   -0.10632E-03   -0.17453E-04 13448   0.448E-02    0.743E-02
DAV: 261    -0.271515624508E+02    0.18140E-03   -0.80018E-04 13336   0.766E-02    0.647E-02
DAV: 262    -0.271515862550E+02   -0.23804E-04   -0.60191E-05 13152   0.301E-02    0.639E-02
DAV: 263    -0.271516154130E+02   -0.29158E-04   -0.16788E-05 11736   0.188E-02    0.607E-02
DAV: 264    -0.271517249697E+02   -0.10956E-03   -0.96830E-04 12832   0.920E-02    0.501E-02
DAV: 265    -0.271518188060E+02   -0.93836E-04   -0.37379E-04 15104   0.531E-02    0.516E-02
DAV: 266    -0.271515772820E+02    0.24152E-03   -0.15827E-03 11920   0.127E-01    0.563E-02
DAV: 267    -0.271517719142E+02   -0.19463E-03   -0.26456E-04 11416   0.651E-02    0.517E-02
DAV: 268    -0.271517649956E+02    0.69186E-05   -0.13188E-03 12896   0.106E-01    0.482E-02
DAV: 269    -0.271518651883E+02   -0.10019E-03   -0.69566E-05 12168   0.410E-02    0.522E-02
DAV: 270    -0.271517068217E+02    0.15837E-03   -0.54417E-04 12024   0.813E-02    0.560E-02
DAV: 271    -0.271515096926E+02    0.19713E-03   -0.10306E-03 14136   0.889E-02    0.521E-02
DAV: 272    -0.271514169223E+02    0.92770E-04   -0.76762E-04 14912   0.761E-02    0.509E-02
DAV: 273    -0.271514643974E+02   -0.47475E-04   -0.18652E-04 13312   0.445E-02    0.477E-02
DAV: 274    -0.271515087644E+02   -0.44367E-04   -0.12512E-05 11072   0.206E-02    0.461E-02
DAV: 275    -0.271515646379E+02   -0.55873E-04   -0.69036E-04 12384   0.882E-02    0.451E-02
DAV: 276    -0.271513404515E+02    0.22419E-03   -0.14555E-03 13048   0.131E-01    0.541E-02
DAV: 277    -0.271513970107E+02   -0.56559E-04   -0.19222E-04 12808   0.542E-02    0.577E-02
DAV: 278    -0.271513872261E+02    0.97847E-05   -0.55182E-05 12704   0.281E-02    0.595E-02
DAV: 279    -0.271514176956E+02   -0.30470E-04   -0.10292E-04 11416   0.396E-02    0.612E-02
DAV: 280    -0.271514143364E+02    0.33592E-05   -0.19257E-05 12176   0.196E-02    0.635E-02
DAV: 281    -0.271512612713E+02    0.15307E-03   -0.24280E-04 12512   0.465E-02    0.629E-02
DAV: 282    -0.271512976093E+02   -0.36338E-04   -0.20146E-05 12304   0.189E-02    0.624E-02
DAV: 283    -0.271513668896E+02   -0.69280E-04   -0.11272E-04 11560   0.428E-02    0.641E-02
DAV: 284    -0.271514022233E+02   -0.35334E-04   -0.42045E-05 12200   0.243E-02    0.642E-02
DAV: 285    -0.271514286431E+02   -0.26420E-04   -0.11149E-04 13016   0.321E-02    0.642E-02
DAV: 286    -0.271515130102E+02   -0.84367E-04   -0.99884E-04 13352   0.895E-02    0.675E-02
DAV: 287    -0.271515294645E+02   -0.16454E-04   -0.49464E-05 11048   0.413E-02    0.693E-02
DAV: 288    -0.271514042492E+02    0.12522E-03   -0.76737E-04 12344   0.794E-02    0.681E-02
DAV: 289    -0.271514794736E+02   -0.75224E-04   -0.18157E-05 11224   0.253E-02    0.644E-02
DAV: 290    -0.271515498978E+02   -0.70424E-04   -0.22150E-04 11872   0.527E-02    0.629E-02
DAV: 291    -0.271515499615E+02   -0.63661E-07   -0.81419E-03 13904   0.263E-01    0.451E-02
DAV: 292    -0.271519304535E+02   -0.38049E-03   -0.49251E-03 14320   0.208E-01    0.480E-02
DAV: 293    -0.271523675720E+02   -0.43712E-03   -0.70648E-04 12600   0.110E-01    0.482E-02
DAV: 294    -0.271524148312E+02   -0.47259E-04   -0.89569E-05 11760   0.518E-02    0.503E-02
DAV: 295    -0.271524929219E+02   -0.78091E-04   -0.10684E-04 13592   0.370E-02    0.493E-02
DAV: 296    -0.271524224915E+02    0.70430E-04   -0.76797E-05 11928   0.339E-02    0.512E-02
DAV: 297    -0.271524842031E+02   -0.61712E-04   -0.10084E-04 13864   0.308E-02    0.500E-02
DAV: 298    -0.271524343253E+02    0.49878E-04   -0.71022E-05 12824   0.271E-02    0.507E-02
DAV: 299    -0.271524477750E+02   -0.13450E-04   -0.11981E-05 11592   0.162E-02    0.495E-02
DAV: 300    -0.271524650585E+02   -0.17283E-04   -0.42188E-05 11648   0.243E-02    0.493E-02
DAV: 301    -0.271524666336E+02   -0.15751E-05   -0.39578E-05 11456   0.261E-02    0.492E-02
DAV: 302    -0.271524729691E+02   -0.63355E-05   -0.17155E-05 11472   0.168E-02    0.478E-02
DAV: 303    -0.271524904456E+02   -0.17477E-04   -0.67342E-05 13696   0.239E-02    0.483E-02
DAV: 304    -0.271524922747E+02   -0.18291E-05   -0.39708E-06 11712   0.104E-02    0.485E-02
DAV: 305    -0.271524884311E+02    0.38436E-05   -0.42371E-06  9944   0.885E-03    0.488E-02
DAV: 306    -0.271525163665E+02   -0.27935E-04   -0.64673E-05 11448   0.302E-02    0.475E-02
DAV: 307    -0.271525110245E+02    0.53419E-05   -0.95693E-06 11864   0.149E-02    0.477E-02
DAV: 308    -0.271525005298E+02    0.10495E-04   -0.84163E-06 10880   0.121E-02    0.479E-02
DAV: 309    -0.271525225351E+02   -0.22005E-04   -0.78670E-05 11704   0.311E-02    0.466E-02
DAV: 310    -0.271525582984E+02   -0.35763E-04   -0.39050E-05 13032   0.199E-02    0.464E-02
DAV: 311    -0.271525239595E+02    0.34339E-04   -0.23594E-05 11120   0.233E-02    0.474E-02
DAV: 312    -0.271525077054E+02    0.16254E-04   -0.36545E-05 12352   0.185E-02    0.479E-02
DAV: 313    -0.271525469599E+02   -0.39255E-04   -0.59068E-05 11344   0.303E-02    0.468E-02
DAV: 314    -0.271525550268E+02   -0.80669E-05   -0.92138E-05 12928   0.308E-02    0.450E-02
DAV: 315    -0.271526108195E+02   -0.55793E-04   -0.31948E-04 13288   0.528E-02    0.428E-02
DAV: 316    -0.271525261621E+02    0.84657E-04   -0.24460E-04 11632   0.592E-02    0.460E-02
DAV: 317    -0.271526834434E+02   -0.15728E-03   -0.34011E-04 12184   0.610E-02    0.422E-02
DAV: 318    -0.271526429499E+02    0.40494E-04   -0.45265E-05 11880   0.314E-02    0.451E-02
DAV: 319    -0.271526377834E+02    0.51665E-05   -0.12422E-05 12392   0.148E-02    0.453E-02
DAV: 320    -0.271526659327E+02   -0.28149E-04   -0.16509E-05 11088   0.191E-02    0.446E-02
DAV: 321    -0.271527107100E+02   -0.44777E-04   -0.14893E-04 12736   0.375E-02    0.453E-02
DAV: 322    -0.271526516777E+02    0.59032E-04   -0.76039E-05 12120   0.343E-02    0.484E-02
DAV: 323    -0.271527107428E+02   -0.59065E-04   -0.15151E-04 12440   0.426E-02    0.442E-02
DAV: 324    -0.271528059855E+02   -0.95243E-04   -0.37720E-04 14264   0.525E-02    0.444E-02
DAV: 325    -0.271528589689E+02   -0.52983E-04   -0.20051E-04 14512   0.385E-02    0.444E-02
DAV: 326    -0.271527940045E+02    0.64964E-04   -0.18974E-04 11872   0.505E-02    0.469E-02
DAV: 327    -0.271528105555E+02   -0.16551E-04   -0.51643E-06 11536   0.128E-02    0.453E-02
DAV: 328    -0.271528220467E+02   -0.11491E-04   -0.22930E-05 11200   0.193E-02    0.444E-02
DAV: 329    -0.271528304241E+02   -0.83774E-05   -0.80706E-06 12120   0.114E-02    0.443E-02
DAV: 330    -0.271527992482E+02    0.31176E-04   -0.50057E-05 11824   0.258E-02    0.448E-02
DAV: 331    -0.271528181635E+02   -0.18915E-04   -0.14779E-03 13488   0.116E-01    0.376E-02
DAV: 332    -0.271528984293E+02   -0.80266E-04   -0.12325E-04 13584   0.430E-02    0.379E-02
DAV: 333    -0.271528992421E+02   -0.81285E-06   -0.15954E-04 13272   0.426E-02    0.375E-02
DAV: 334    -0.271529115627E+02   -0.12321E-04   -0.13076E-04 12760   0.404E-02    0.357E-02
DAV: 335    -0.271529092266E+02    0.23360E-05   -0.98405E-05 13800   0.320E-02    0.357E-02
DAV: 336    -0.271529495506E+02   -0.40324E-04   -0.95892E-04 13032   0.105E-01    0.327E-02
DAV: 337    -0.271530216705E+02   -0.72120E-04   -0.41481E-05 12544   0.348E-02    0.344E-02
DAV: 338    -0.271530533714E+02   -0.31701E-04   -0.45107E-06 10888   0.139E-02    0.345E-02
DAV: 339    -0.271530392912E+02    0.14080E-04   -0.48369E-06 11192   0.108E-02    0.345E-02
DAV: 340    -0.271530516485E+02   -0.12357E-04   -0.82406E-05 12312   0.300E-02    0.345E-02
DAV: 341    -0.271530245978E+02    0.27051E-04   -0.40176E-04 12640   0.650E-02    0.331E-02
DAV: 342    -0.271530912982E+02   -0.66700E-04   -0.16797E-04 13568   0.392E-02    0.353E-02
DAV: 343    -0.271531021287E+02   -0.10830E-04   -0.11976E-04 12904   0.360E-02    0.368E-02
DAV: 344    -0.271531391883E+02   -0.37060E-04   -0.83787E-06 11672   0.176E-02    0.375E-02
DAV: 345    -0.271531208323E+02    0.18356E-04   -0.21406E-06 10104   0.899E-03    0.379E-02
DAV: 346    -0.271524759011E+02    0.64493E-03   -0.51124E-03 13536   0.212E-01    0.553E-02
DAV: 347    -0.271529278942E+02   -0.45199E-03   -0.37207E-04 12736   0.851E-02    0.425E-02
DAV: 348    -0.271529720514E+02   -0.44157E-04   -0.22974E-04 13552   0.481E-02    0.421E-02
DAV: 349    -0.271529492501E+02    0.22801E-04   -0.14210E-04 13232   0.390E-02    0.427E-02
DAV: 350    -0.271529324042E+02    0.16846E-04   -0.81112E-05 14376   0.264E-02    0.408E-02
DAV: 351    -0.271529213354E+02    0.11069E-04   -0.41489E-04 12376   0.747E-02    0.368E-02
DAV: 352    -0.271529662908E+02   -0.44955E-04   -0.50535E-05 12512   0.291E-02    0.374E-02
DAV: 353    -0.271529522120E+02    0.14079E-04   -0.36808E-05 11960   0.236E-02    0.378E-02
DAV: 354    -0.271529762821E+02   -0.24070E-04   -0.43017E-05 12504   0.229E-02    0.378E-02
DAV: 355    -0.271529579027E+02    0.18379E-04   -0.24382E-05 11728   0.190E-02    0.375E-02
DAV: 356    -0.271528222168E+02    0.13569E-03   -0.12797E-03 13880   0.108E-01    0.362E-02
DAV: 357    -0.271529265079E+02   -0.10429E-03   -0.33483E-04 12000   0.732E-02    0.334E-02
DAV: 358    -0.271528343496E+02    0.92158E-04   -0.30406E-03 13712   0.164E-01    0.297E-02
DAV: 359    -0.271530625321E+02   -0.22818E-03   -0.15493E-04 12376   0.635E-02    0.361E-02
DAV: 360    -0.271530606213E+02    0.19108E-05   -0.89632E-05 11408   0.455E-02    0.365E-02
DAV: 361    -0.271530353680E+02    0.25253E-04   -0.76285E-05 11216   0.406E-02    0.368E-02
DAV: 362    -0.271530404747E+02   -0.51067E-05   -0.14764E-04 13408   0.372E-02    0.360E-02
DAV: 363    -0.271530446233E+02   -0.41487E-05   -0.57953E-05 12712   0.274E-02    0.350E-02
DAV: 364    -0.271530571620E+02   -0.12539E-04   -0.34661E-05 12496   0.196E-02    0.343E-02
DAV: 365    -0.271530681261E+02   -0.10964E-04   -0.12798E-04 13056   0.348E-02    0.336E-02
DAV: 366    -0.271530828221E+02   -0.14696E-04   -0.16461E-04 13840   0.399E-02    0.342E-02
DAV: 367    -0.271531040821E+02   -0.21260E-04   -0.52462E-05 13440   0.238E-02    0.337E-02
DAV: 368    -0.271531156823E+02   -0.11600E-04   -0.24747E-05 11096   0.256E-02    0.338E-02
DAV: 369    -0.271531064799E+02    0.92024E-05   -0.43770E-05 11736   0.258E-02    0.341E-02
DAV: 370    -0.271531091099E+02   -0.26300E-05   -0.30797E-05 13488   0.184E-02    0.340E-02
DAV: 371    -0.271530838881E+02    0.25222E-04   -0.19234E-04 13096   0.441E-02    0.344E-02
DAV: 372    -0.271531125608E+02   -0.28673E-04   -0.80918E-05 11472   0.391E-02    0.323E-02
DAV: 373    -0.271531311516E+02   -0.18591E-04   -0.20014E-05 12808   0.155E-02    0.324E-02
DAV: 374    -0.271531256201E+02    0.55315E-05   -0.46448E-05 12720   0.198E-02    0.327E-02
DAV: 375    -0.271531319849E+02   -0.63648E-05   -0.12062E-05 12480   0.116E-02    0.329E-02
DAV: 376    -0.271531089066E+02    0.23078E-04   -0.11474E-04 12744   0.330E-02    0.330E-02
DAV: 377    -0.271531284864E+02   -0.19580E-04   -0.17638E-05 12176   0.171E-02    0.327E-02
DAV: 378    -0.271531321220E+02   -0.36356E-05   -0.63323E-06 12232   0.962E-03    0.328E-02
DAV: 379    -0.271531164598E+02    0.15662E-04   -0.11534E-05 11592   0.128E-02    0.330E-02
DAV: 380    -0.271531212810E+02   -0.48211E-05   -0.13439E-05 12512   0.123E-02    0.327E-02
DAV: 381    -0.271530862079E+02    0.35073E-04   -0.14492E-04 12712   0.371E-02    0.332E-02
DAV: 382    -0.271531214367E+02   -0.35229E-04   -0.80226E-06 11344   0.164E-02    0.317E-02
DAV: 383    -0.271531389442E+02   -0.17507E-04   -0.19771E-04 12208   0.477E-02    0.302E-02
DAV: 384    -0.271531286819E+02    0.10262E-04   -0.25465E-05 12264   0.229E-02    0.320E-02
DAV: 385    -0.271531345399E+02   -0.58580E-05   -0.44393E-06 11264   0.957E-03    0.317E-02
DAV: 386    -0.271531604098E+02   -0.25870E-04   -0.12983E-04 12472   0.371E-02    0.305E-02
DAV: 387    -0.271531651728E+02   -0.47631E-05   -0.11915E-05 12048   0.184E-02    0.322E-02
DAV: 388    -0.271531794607E+02   -0.14288E-04   -0.31085E-05 13136   0.171E-02    0.314E-02
DAV: 389    -0.271531370495E+02    0.42411E-04   -0.23146E-04 12704   0.494E-02    0.318E-02
DAV: 390    -0.271531669030E+02   -0.29854E-04   -0.13870E-04 14208   0.359E-02    0.334E-02
DAV: 391    -0.271531806087E+02   -0.13706E-04   -0.64202E-04 14048   0.770E-02    0.339E-02
DAV: 392    -0.271532286288E+02   -0.48020E-04   -0.20890E-05 11384   0.297E-02    0.342E-02
DAV: 393    -0.271532283403E+02    0.28853E-06   -0.61944E-06 11200   0.119E-02    0.342E-02
DAV: 394    -0.271532228325E+02    0.55078E-05   -0.16187E-05 11928   0.145E-02    0.342E-02
DAV: 395    -0.271532247834E+02   -0.19509E-05   -0.14706E-06  9544   0.813E-03    0.342E-02
DAV: 396    -0.271531917518E+02    0.33032E-04   -0.21891E-04 12960   0.478E-02    0.336E-02
DAV: 397    -0.271531974050E+02   -0.56532E-05   -0.99737E-06 12192   0.175E-02    0.329E-02
DAV: 398    -0.271531114559E+02    0.85949E-04   -0.38684E-04 12328   0.618E-02    0.349E-02
DAV: 399    -0.271531572571E+02   -0.45801E-04   -0.29359E-05 12176   0.251E-02    0.323E-02
DAV: 400    -0.271531718761E+02   -0.14619E-04   -0.10330E-05 12840   0.117E-02    0.326E-02
DAV: 401    -0.271530314486E+02    0.14043E-03   -0.23701E-03 13608   0.142E-01    0.407E-02
DAV: 402    -0.271532058847E+02   -0.17444E-03   -0.96721E-05 11392   0.529E-02    0.430E-02
DAV: 403    -0.271531938970E+02    0.11988E-04   -0.34970E-04 12480   0.620E-02    0.385E-02
DAV: 404    -0.271532199897E+02   -0.26093E-04   -0.11691E-05 11728   0.203E-02    0.377E-02
DAV: 405    -0.271532160496E+02    0.39402E-05   -0.16963E-05 12176   0.159E-02    0.373E-02
DAV: 406    -0.271531583102E+02    0.57739E-04   -0.31038E-04 13496   0.559E-02    0.381E-02
DAV: 407    -0.271531978451E+02   -0.39535E-04   -0.49322E-05 12592   0.289E-02    0.358E-02
DAV: 408    -0.271531686536E+02    0.29191E-04   -0.88059E-05 13168   0.288E-02    0.357E-02
DAV: 409    -0.271531804689E+02   -0.11815E-04   -0.16249E-04 12296   0.440E-02    0.353E-02
DAV: 410    -0.271531988420E+02   -0.18373E-04   -0.73571E-05 13688   0.266E-02    0.357E-02
DAV: 411    -0.271532195980E+02   -0.20756E-04   -0.28898E-05 12824   0.186E-02    0.365E-02
DAV: 412    -0.271532088075E+02    0.10791E-04   -0.83054E-06 10864   0.152E-02    0.367E-02
DAV: 413    -0.271531856424E+02    0.23165E-04   -0.34923E-05 11576   0.230E-02    0.369E-02
DAV: 414    -0.271532066864E+02   -0.21044E-04   -0.85310E-06 10648   0.157E-02    0.365E-02
DAV: 415    -0.271531923804E+02    0.14306E-04   -0.84874E-06 11488   0.112E-02    0.365E-02
DAV: 416    -0.271532103343E+02   -0.17954E-04   -0.18141E-05 11440   0.153E-02    0.370E-02
DAV: 417    -0.271531921601E+02    0.18174E-04   -0.91657E-06 11000   0.143E-02    0.371E-02
DAV: 418    -0.271531926443E+02   -0.48419E-06   -0.95911E-06 11152   0.128E-02    0.370E-02
DAV: 419    -0.271531926606E+02   -0.16242E-07   -0.72104E-07  9120   0.458E-03
   1 F= -.27153193E+02 E0= -.27007741E+02  d E =-.271532E+02  mag=     4.9254
       N       E                     dE             d eps       ncg     rms          rms(c)
DAV:   1    -0.271664359944E+02   -0.13243E-01   -0.26802E-01 12248   0.250E+00    0.121E+00
DAV:   2    -0.271907086120E+02   -0.24273E-01   -0.18430E-01 16056   0.250E+00    0.266E+00
DAV:   3    -0.271811839096E+02    0.95247E-02   -0.42192E-01 16424   0.214E+00    0.546E+00
DAV:   4    -0.271391402795E+02    0.42044E-01   -0.34142E-01 15800   0.114E+00    0.956E-01
DAV:   5    -0.271448693700E+02   -0.57291E-02   -0.16529E-02 14464   0.403E-01    0.269E-01
DAV:   6    -0.271437620166E+02    0.11074E-02   -0.46252E-03 15256   0.234E-01    0.347E-01
DAV:   7    -0.271462818927E+02   -0.25199E-02   -0.74415E-03 18088   0.231E-01    0.477E-01
DAV:   8    -0.271474991136E+02   -0.12172E-02   -0.40443E-03 17400   0.171E-01    0.163E-01
DAV:   9    -0.271487050077E+02   -0.12059E-02   -0.45304E-04 14504   0.738E-02    0.526E-02
DAV:  10    -0.271501771750E+02   -0.14722E-02   -0.71661E-05 15792   0.332E-02    0.447E-02
DAV:  11    -0.271508362325E+02   -0.65906E-03   -0.54087E-05 16872   0.223E-02    0.699E-02
DAV:  12    -0.271530928195E+02   -0.22566E-02   -0.24107E-04 13016   0.540E-02    0.447E-02
DAV:  13    -0.271532984195E+02   -0.20560E-03   -0.98489E-05 13760   0.321E-02    0.513E-02
DAV:  14    -0.271534433403E+02   -0.14492E-03   -0.95557E-05 14680   0.270E-02    0.454E-02
DAV:  15    -0.271533968398E+02    0.46501E-04   -0.19367E-05 12248   0.191E-02    0.463E-02
DAV:  16    -0.271530395077E+02    0.35733E-03   -0.11809E-03 13112   0.106E-01    0.549E-02
DAV:  17    -0.271528642447E+02    0.17526E-03   -0.14407E-03 15024   0.105E-01    0.640E-02
DAV:  18    -0.271530636198E+02   -0.19938E-03   -0.20254E-04 13080   0.524E-02    0.584E-02
DAV:  19    -0.271530136004E+02    0.50019E-04   -0.83021E-04 14384   0.806E-02    0.438E-02
DAV:  20    -0.271527843564E+02    0.22924E-03   -0.16355E-03 14664   0.111E-01    0.396E-02
DAV:  21    -0.271528721071E+02   -0.87751E-04   -0.53884E-04 13792   0.703E-02    0.366E-02
DAV:  22    -0.271529243833E+02   -0.52276E-04   -0.66676E-05 12280   0.344E-02    0.324E-02
DAV:  23    -0.271530518868E+02   -0.12750E-03   -0.11927E-05 11584   0.186E-02    0.302E-02
DAV:  24    -0.271531123377E+02   -0.60451E-04   -0.30307E-05 13408   0.174E-02    0.290E-02
DAV:  25    -0.271530838962E+02    0.28441E-04   -0.11407E-04 13528   0.311E-02    0.297E-02
DAV:  26    -0.271531381018E+02   -0.54206E-04   -0.12763E-04 11264   0.456E-02    0.261E-02
DAV:  27    -0.271530546378E+02    0.83464E-04   -0.15886E-03 13272   0.117E-01    0.230E-02
DAV:  28    -0.271526656176E+02    0.38902E-03   -0.79551E-03 14216   0.248E-01    0.269E-02
DAV:  29    -0.271528922597E+02   -0.22664E-03   -0.56343E-03 14712   0.208E-01    0.322E-02
DAV:  30    -0.271535461142E+02   -0.65385E-03   -0.92569E-04 13200   0.104E-01    0.363E-02
DAV:  31    -0.271537348917E+02   -0.18878E-03   -0.14733E-04 11152   0.692E-02    0.403E-02
DAV:  32    -0.271537125436E+02    0.22348E-04   -0.13061E-05 13536   0.150E-02    0.400E-02
DAV:  33    -0.271537176930E+02   -0.51494E-05   -0.10853E-06 10440   0.541E-03    0.395E-02
DAV:  34    -0.271537588452E+02   -0.41152E-04   -0.20208E-04 11896   0.546E-02    0.378E-02
DAV:  35    -0.271537724285E+02   -0.13583E-04   -0.10854E-04 15136   0.295E-02    0.357E-02
DAV:  36    -0.271537403739E+02    0.32055E-04   -0.32743E-05 11792   0.273E-02    0.353E-02
DAV:  37    -0.271537629985E+02   -0.22625E-04   -0.24431E-04 12800   0.510E-02    0.344E-02
DAV:  38    -0.271537680579E+02   -0.50594E-05   -0.96886E-05 14456   0.293E-02    0.346E-02
DAV:  39    -0.271538083550E+02   -0.40297E-04   -0.65227E-05 14176   0.232E-02    0.350E-02
DAV:  40    -0.271536907360E+02    0.11762E-03   -0.39057E-04 11744   0.722E-02    0.382E-02
DAV:  41    -0.271537629647E+02   -0.72229E-04   -0.16123E-05 11520   0.228E-02    0.355E-02
DAV:  42    -0.271537610112E+02    0.19535E-05   -0.24206E-06 11176   0.691E-03    0.355E-02
DAV:  43    -0.271536733305E+02    0.87681E-04   -0.19492E-04 12328   0.443E-02    0.367E-02
DAV:  44    -0.271536590643E+02    0.14266E-04   -0.11327E-04 13976   0.323E-02    0.356E-02
DAV:  45    -0.271537385106E+02   -0.79446E-04   -0.45532E-05 11056   0.303E-02    0.330E-02
DAV:  46    -0.271537660140E+02   -0.27503E-04   -0.71921E-05 12544   0.289E-02    0.311E-02
DAV:  47    -0.271538318346E+02   -0.65821E-04   -0.11071E-04 13712   0.312E-02    0.306E-02
DAV:  48    -0.271538410594E+02   -0.92247E-05   -0.11673E-05 11872   0.178E-02    0.310E-02
DAV:  49    -0.271538351705E+02    0.58889E-05   -0.47625E-06 10256   0.972E-03    0.312E-02
DAV:  50    -0.271538247995E+02    0.10371E-04   -0.77096E-06 10248   0.123E-02    0.317E-02
DAV:  51    -0.271538241659E+02    0.63362E-06   -0.48027E-06  9400   0.933E-03    0.315E-02
DAV:  52    -0.271538034532E+02    0.20713E-04   -0.26075E-06  9656   0.728E-03    0.310E-02
DAV:  53    -0.271537997631E+02    0.36901E-05   -0.75598E-06 11792   0.945E-03    0.310E-02
DAV:  54    -0.271538045530E+02   -0.47899E-05   -0.25335E-06 10248   0.633E-03    0.312E-02
DAV:  55    -0.271537534620E+02    0.51091E-04   -0.39394E-05 11344   0.229E-02    0.322E-02
DAV:  56    -0.271537673396E+02   -0.13878E-04   -0.31189E-05 11824   0.186E-02    0.313E-02
DAV:  57    -0.271538026447E+02   -0.35305E-04   -0.54861E-05 12912   0.216E-02    0.310E-02
DAV:  58    -0.271537821852E+02    0.20459E-04   -0.93188E-06 11672   0.144E-02    0.318E-02
DAV:  59    -0.271537885573E+02   -0.63720E-05   -0.11323E-06  9800   0.593E-03    0.314E-02
DAV:  60    -0.271538262967E+02   -0.37739E-04   -0.87834E-05 12232   0.285E-02    0.310E-02
DAV:  61    -0.271538066748E+02    0.19622E-04   -0.13587E-05 11312   0.182E-02    0.319E-02
DAV:  62    -0.271538213442E+02   -0.14669E-04   -0.38415E-06 10832   0.825E-03    0.316E-02
DAV:  63    -0.271538315348E+02   -0.10191E-04   -0.62644E-05 12400   0.241E-02    0.313E-02
DAV:  64    -0.271537513642E+02    0.80171E-04   -0.15461E-04 11984   0.426E-02    0.339E-02
DAV:  65    -0.271536748139E+02    0.76550E-04   -0.23967E-04 14176   0.433E-02    0.344E-02
DAV:  66    -0.271536559254E+02    0.18888E-04   -0.11589E-04 14448   0.307E-02    0.333E-02
DAV:  67    -0.271536175102E+02    0.38415E-04   -0.13835E-04 14424   0.322E-02    0.335E-02
DAV:  68    -0.271536499298E+02   -0.32420E-04   -0.23081E-05 12216   0.191E-02    0.319E-02
DAV:  69    -0.271536491560E+02    0.77382E-06   -0.13756E-05 12952   0.123E-02    0.316E-02
DAV:  70    -0.271536194455E+02    0.29710E-04   -0.55788E-05 13464   0.217E-02    0.320E-02
DAV:  71    -0.271536085443E+02    0.10901E-04   -0.30550E-05 13656   0.169E-02    0.314E-02
DAV:  72    -0.271536299521E+02   -0.21408E-04   -0.11057E-05 11224   0.154E-02    0.302E-02
DAV:  73    -0.271536215323E+02    0.84197E-05   -0.25183E-05 12456   0.155E-02    0.303E-02
DAV:  74    -0.271536122636E+02    0.92688E-05   -0.23949E-05 12808   0.137E-02    0.308E-02
DAV:  75    -0.271536146992E+02   -0.24357E-05   -0.19633E-06 10672   0.729E-03    0.308E-02
DAV:  76    -0.271536180473E+02   -0.33481E-05   -0.87756E-06 11552   0.935E-03    0.305E-02
DAV:  77    -0.271532470655E+02    0.37098E-03   -0.65324E-03 13096   0.228E-01    0.451E-02
DAV:  78    -0.271536196486E+02   -0.37258E-03   -0.20187E-04 12464   0.805E-02    0.366E-02
DAV:  79    -0.271536603729E+02   -0.40724E-04   -0.13405E-05 12632   0.216E-02    0.359E-02
DAV:  80    -0.271536439389E+02    0.16434E-04   -0.83017E-06 12872   0.114E-02    0.367E-02
DAV:  81    -0.271536379324E+02    0.60065E-05   -0.58297E-06 12544   0.770E-03    0.366E-02
DAV:  82    -0.271536057327E+02    0.32200E-04   -0.62398E-05 12424   0.264E-02    0.355E-02
DAV:  83    -0.271536435439E+02   -0.37811E-04   -0.67943E-04 12552   0.863E-02    0.318E-02
DAV:  84    -0.271537191394E+02   -0.75596E-04   -0.26869E-04 15064   0.466E-02    0.342E-02
DAV:  85    -0.271537305682E+02   -0.11429E-04   -0.30621E-05 10712   0.368E-02    0.372E-02
DAV:  86    -0.271537773006E+02   -0.46732E-04   -0.21941E-04 11920   0.531E-02    0.338E-02
DAV:  87    -0.271537614516E+02    0.15849E-04   -0.62593E-05 11296   0.415E-02    0.370E-02
DAV:  88    -0.271537616525E+02   -0.20085E-06   -0.40758E-06 11520   0.111E-02    0.367E-02
DAV:  89    -0.271537745087E+02   -0.12856E-04   -0.47038E-06 10056   0.909E-03    0.355E-02
DAV:  90    -0.271536256056E+02    0.14890E-03   -0.30875E-04 12392   0.543E-02    0.384E-02
DAV:  91    -0.271536044676E+02    0.21138E-04   -0.11879E-04 14696   0.315E-02    0.366E-02
DAV:  92    -0.271535631430E+02    0.41325E-04   -0.13960E-04 14688   0.315E-02    0.364E-02
DAV:  93    -0.271536274102E+02   -0.64267E-04   -0.14964E-05 11000   0.210E-02    0.335E-02
DAV:  94    -0.271536326810E+02   -0.52708E-05   -0.18955E-06 10904   0.573E-03    0.338E-02
DAV:  95    -0.271536411112E+02   -0.84301E-05   -0.30133E-05 12184   0.166E-02    0.334E-02
DAV:  96    -0.271536467057E+02   -0.55945E-05   -0.62112E-05 13624   0.214E-02    0.329E-02
DAV:  97    -0.271536961424E+02   -0.49437E-04   -0.50383E-04 12512   0.750E-02    0.289E-02
DAV:  98    -0.271537314821E+02   -0.35340E-04   -0.29390E-05 11168   0.376E-02    0.329E-02
DAV:  99    -0.271537360608E+02   -0.45787E-05   -0.51437E-05 12632   0.221E-02    0.322E-02
DAV: 100    -0.271537858662E+02   -0.49805E-04   -0.14143E-04 12752   0.365E-02    0.318E-02
DAV: 101    -0.271537979713E+02   -0.12105E-04   -0.19571E-05 12336   0.191E-02    0.332E-02
DAV: 102    -0.271538059998E+02   -0.80284E-05   -0.15399E-04 12888   0.343E-02    0.336E-02
DAV: 103    -0.271538016274E+02    0.43723E-05   -0.87598E-06 11240   0.190E-02    0.352E-02
DAV: 104    -0.271538261481E+02   -0.24521E-04   -0.25822E-04 12496   0.458E-02    0.346E-02
DAV: 105    -0.271538257058E+02    0.44229E-06   -0.60060E-05 11952   0.325E-02    0.359E-02
DAV: 106    -0.271537822451E+02    0.43461E-04   -0.15995E-04 13072   0.349E-02    0.361E-02
DAV: 107    -0.271537904745E+02   -0.82294E-05   -0.23584E-05 12408   0.193E-02    0.353E-02
DAV: 108    -0.271538042249E+02   -0.13750E-04   -0.24833E-06 10240   0.916E-03    0.346E-02
DAV: 109    -0.271538042975E+02   -0.72624E-07   -0.89930E-07  8472   0.436E-03
   2 F= -.27153804E+02 E0= -.27008559E+02  d E =-.611637E-03  mag=     4.9236
       N       E                     dE             d eps       ncg     rms          rms(c)
DAV:   1    -0.271551872969E+02   -0.13831E-02   -0.30079E-02 12232   0.838E-01    0.404E-01
DAV:   2    -0.271564378409E+02   -0.12505E-02   -0.20343E-02 16072   0.845E-01    0.861E-01
DAV:   3    -0.271513483467E+02    0.50895E-02   -0.31455E-02 16360   0.668E-01    0.151E+00
DAV:   4    -0.271482495139E+02    0.30988E-02   -0.25111E-02 15624   0.368E-01    0.368E-01
DAV:   5    -0.271503270977E+02   -0.20776E-02   -0.19444E-03 14416   0.144E-01    0.895E-02
DAV:   6    -0.271499819004E+02    0.34520E-03   -0.43533E-04 14976   0.773E-02    0.120E-01
DAV:   7    -0.271508196454E+02   -0.83774E-03   -0.70240E-04 17336   0.794E-02    0.147E-01
DAV:   8    -0.271513304677E+02   -0.51082E-03   -0.45602E-04 16592   0.622E-02    0.835E-02
DAV:   9    -0.271516160885E+02   -0.28562E-03   -0.79984E-05 13576   0.322E-02    0.456E-02
DAV:  10    -0.271519069477E+02   -0.29086E-03   -0.18008E-05 14312   0.162E-02    0.467E-02
DAV:  11    -0.271516348429E+02    0.27210E-03   -0.42977E-05 11712   0.240E-02    0.456E-02
DAV:  12    -0.271524920472E+02   -0.85720E-03   -0.29606E-04 11904   0.545E-02    0.469E-02
DAV:  13    -0.271527537533E+02   -0.26171E-03   -0.67244E-04 13504   0.782E-02    0.479E-02
DAV:  14    -0.271532465480E+02   -0.49279E-03   -0.20478E-03 14480   0.122E-01    0.398E-02
DAV:  15    -0.271535643418E+02   -0.31779E-03   -0.77468E-04 14640   0.776E-02    0.420E-02
DAV:  16    -0.271530308137E+02    0.53353E-03   -0.83318E-04 11704   0.104E-01    0.497E-02
DAV:  17    -0.271531288839E+02   -0.98070E-04   -0.57431E-04 11648   0.789E-02    0.425E-02
DAV:  18    -0.271529647461E+02    0.16414E-03   -0.15028E-03 14192   0.104E-01    0.418E-02
DAV:  19    -0.271530161011E+02   -0.51355E-04   -0.88392E-04 15312   0.764E-02    0.484E-02
DAV:  20    -0.271529561719E+02    0.59929E-04   -0.58446E-04 11784   0.906E-02    0.549E-02
DAV:  21    -0.271532005999E+02   -0.24443E-03   -0.62077E-04 11840   0.788E-02    0.492E-02
DAV:  22    -0.271533650047E+02   -0.16440E-03   -0.31376E-03 14224   0.147E-01    0.463E-02
DAV:  23    -0.271539250961E+02   -0.56009E-03   -0.14959E-03 14720   0.105E-01    0.559E-02
DAV:  24    -0.271542537205E+02   -0.32862E-03   -0.14323E-03 15000   0.944E-02    0.577E-02
DAV:  25    -0.271543206387E+02   -0.66918E-04   -0.35790E-05 11832   0.437E-02    0.638E-02
DAV:  26    -0.271544529553E+02   -0.13232E-03   -0.20696E-04 12320   0.533E-02    0.640E-02
DAV:  27    -0.271544278007E+02    0.25155E-04   -0.60948E-04 12440   0.791E-02    0.679E-02
DAV:  28    -0.271545679359E+02   -0.14014E-03   -0.10516E-04 12360   0.442E-02    0.636E-02
DAV:  29    -0.271545700179E+02   -0.20820E-05   -0.84714E-05 13000   0.299E-02    0.664E-02
DAV:  30    -0.271545256754E+02    0.44342E-04   -0.31254E-05 14120   0.167E-02    0.646E-02
DAV:  31    -0.271545293304E+02   -0.36549E-05   -0.73043E-06 12432   0.957E-03    0.640E-02
DAV:  32    -0.271545197631E+02    0.95673E-05   -0.13069E-05 11280   0.160E-02    0.637E-02
DAV:  33    -0.271545304698E+02   -0.10707E-04   -0.26848E-06 10536   0.657E-03    0.639E-02
DAV:  34    -0.271544302264E+02    0.10024E-03   -0.90891E-05 12712   0.305E-02    0.649E-02
DAV:  35    -0.271544005983E+02    0.29628E-04   -0.10391E-04 13288   0.318E-02    0.627E-02
DAV:  36    -0.271544234436E+02   -0.22845E-04   -0.22058E-05 12632   0.164E-02    0.624E-02
DAV:  37    -0.271543504568E+02    0.72987E-04   -0.15967E-04 13448   0.367E-02    0.639E-02
DAV:  38    -0.271543471378E+02    0.33190E-05   -0.29617E-05 13192   0.184E-02    0.624E-02
DAV:  39    -0.271543480336E+02   -0.89581E-06   -0.86523E-06 11560   0.113E-02    0.623E-02
DAV:  40    -0.271540412712E+02    0.30676E-03   -0.12256E-03 13584   0.924E-02    0.671E-02
DAV:  41    -0.271540345465E+02    0.67247E-05   -0.27169E-04 14424   0.482E-02    0.629E-02
DAV:  42    -0.271539906251E+02    0.43921E-04   -0.12429E-04 14096   0.325E-02    0.624E-02
DAV:  43    -0.271540760904E+02   -0.85465E-04   -0.15658E-04 11440   0.528E-02    0.598E-02
DAV:  44    -0.271540336508E+02    0.42440E-04   -0.29696E-04 13392   0.508E-02    0.615E-02
DAV:  45    -0.271540113610E+02    0.22290E-04   -0.29592E-04 14808   0.463E-02    0.607E-02
DAV:  46    -0.271539875325E+02    0.23828E-04   -0.23668E-04 14232   0.411E-02    0.607E-02
DAV:  47    -0.271540514296E+02   -0.63897E-04   -0.17757E-04 11240   0.590E-02    0.587E-02
DAV:  48    -0.271540533256E+02   -0.18961E-05   -0.19835E-03 13544   0.118E-01    0.571E-02
DAV:  49    -0.271542328973E+02   -0.17957E-03   -0.13665E-03 15120   0.936E-02    0.597E-02
DAV:  50    -0.271541420835E+02    0.90814E-04   -0.13490E-03 11736   0.123E-01    0.687E-02
DAV:  51    -0.271541450804E+02   -0.29969E-05   -0.11281E-04 13632   0.365E-02    0.629E-02
DAV:  52    -0.271539197492E+02    0.22533E-03   -0.53626E-04 13120   0.672E-02    0.650E-02
DAV:  53    -0.271539175746E+02    0.21746E-05   -0.99063E-05 13472   0.326E-02    0.608E-02
DAV:  54    -0.271537444125E+02    0.17316E-03   -0.97009E-04 13600   0.806E-02    0.614E-02
DAV:  55    -0.271536979499E+02    0.46463E-04   -0.32525E-04 14352   0.507E-02    0.576E-02
DAV:  56    -0.271537895235E+02   -0.91574E-04   -0.90874E-05 11632   0.392E-02    0.533E-02
DAV:  57    -0.271539204855E+02   -0.13096E-03   -0.28814E-03 13608   0.140E-01    0.492E-02
DAV:  58    -0.271541730162E+02   -0.25253E-03   -0.66007E-03 15104   0.206E-01    0.499E-02
DAV:  59    -0.271545936333E+02   -0.42062E-03   -0.48858E-03 15248   0.180E-01    0.560E-02
DAV:  60    -0.271549249701E+02   -0.33134E-03   -0.15482E-04 12872   0.625E-02    0.648E-02
DAV:  61    -0.271549117312E+02    0.13239E-04   -0.41832E-05 11376   0.391E-02    0.657E-02
DAV:  62    -0.271547555234E+02    0.15621E-03   -0.41724E-04 13000   0.585E-02    0.675E-02
DAV:  63    -0.271548215046E+02   -0.65981E-04   -0.21571E-05 11680   0.236E-02    0.633E-02
DAV:  64    -0.271548106482E+02    0.10856E-04   -0.12800E-05 12696   0.108E-02    0.650E-02
DAV:  65    -0.271545502817E+02    0.26037E-03   -0.12622E-03 13440   0.960E-02    0.684E-02
DAV:  66    -0.271544969072E+02    0.53375E-04   -0.51848E-04 14608   0.614E-02    0.634E-02
DAV:  67    -0.271547424078E+02   -0.24550E-03   -0.10108E-03 11800   0.994E-02    0.556E-02
DAV:  68    -0.271547496812E+02   -0.72734E-05   -0.18168E-05 12312   0.277E-02    0.618E-02
DAV:  69    -0.271546109197E+02    0.13876E-03   -0.37174E-04 12256   0.575E-02    0.634E-02
DAV:  70    -0.271547564750E+02   -0.14556E-03   -0.32236E-04 11800   0.617E-02    0.582E-02
DAV:  71    -0.271548500751E+02   -0.93600E-04   -0.31523E-04 14232   0.503E-02    0.612E-02
DAV:  72    -0.271548489793E+02    0.10958E-05   -0.50294E-05 11840   0.340E-02    0.645E-02
DAV:  73    -0.271548894264E+02   -0.40447E-04   -0.17323E-04 11744   0.502E-02    0.632E-02
DAV:  74    -0.271549952452E+02   -0.10582E-03   -0.29100E-04 13456   0.528E-02    0.645E-02
DAV:  75    -0.271549847109E+02    0.10534E-04   -0.13101E-05 11320   0.249E-02    0.676E-02
DAV:  76    -0.271549930528E+02   -0.83419E-05   -0.18001E-05 12568   0.139E-02    0.669E-02
DAV:  77    -0.271549944519E+02   -0.13992E-05   -0.38695E-05 11392   0.276E-02    0.680E-02
DAV:  78    -0.271549545829E+02    0.39869E-04   -0.60556E-05 12832   0.233E-02    0.678E-02
DAV:  79    -0.271549827096E+02   -0.28127E-04   -0.82309E-06 11288   0.135E-02    0.664E-02
DAV:  80    -0.271549846503E+02   -0.19407E-05   -0.38703E-06 10040   0.107E-02    0.668E-02
DAV:  81    -0.271549729518E+02    0.11699E-04   -0.57152E-06 11336   0.870E-03    0.669E-02
DAV:  82    -0.271548353445E+02    0.13761E-03   -0.37585E-04 12824   0.550E-02    0.697E-02
DAV:  83    -0.271548272313E+02    0.81132E-05   -0.41016E-05 13072   0.231E-02    0.670E-02
DAV:  84    -0.271548500594E+02   -0.22828E-04   -0.28702E-06 10056   0.108E-02    0.662E-02
DAV:  85    -0.271548518790E+02   -0.18196E-05   -0.42424E-07  8672   0.346E-03    0.663E-02
DAV:  86    -0.271548575282E+02   -0.56491E-05   -0.48668E-06 10944   0.857E-03    0.664E-02
DAV:  87    -0.271546758755E+02    0.18165E-03   -0.66672E-04 12936   0.728E-02    0.712E-02
DAV:  88    -0.271547709691E+02   -0.95094E-04   -0.54209E-05 11888   0.326E-02    0.652E-02
DAV:  89    -0.271548524515E+02   -0.81482E-04   -0.24443E-04 12264   0.537E-02    0.656E-02
DAV:  90    -0.271548540790E+02   -0.16275E-05   -0.81603E-06 11264   0.212E-02    0.682E-02
DAV:  91    -0.271548704984E+02   -0.16419E-04   -0.21412E-05 12472   0.159E-02    0.679E-02
DAV:  92    -0.271548169200E+02    0.53578E-04   -0.75017E-05 11832   0.309E-02    0.701E-02
DAV:  93    -0.271546850927E+02    0.13183E-03   -0.43376E-04 12888   0.582E-02    0.737E-02
DAV:  94    -0.271547121824E+02   -0.27090E-04   -0.16851E-05 12944   0.200E-02    0.703E-02
DAV:  95    -0.271547072040E+02    0.49784E-05   -0.93809E-06 12960   0.931E-03    0.709E-02
DAV:  96    -0.271547080986E+02   -0.89465E-06   -0.20856E-06 10208   0.656E-03    0.705E-02
DAV:  97    -0.271534828972E+02    0.12252E-02   -0.12621E-02 14048   0.288E-01    0.907E-02
DAV:  98    -0.271540454035E+02   -0.56251E-03   -0.23491E-04 13304   0.821E-02    0.672E-02
DAV:  99    -0.271541194006E+02   -0.73997E-04   -0.15464E-05 12176   0.257E-02    0.679E-02
DAV: 100    -0.271541521092E+02   -0.32709E-04   -0.66507E-05 11752   0.288E-02    0.643E-02
DAV: 101    -0.271542247140E+02   -0.72605E-04   -0.32493E-04 13392   0.482E-02    0.595E-02
DAV: 102    -0.271542628181E+02   -0.38104E-04   -0.81410E-03 14008   0.224E-01    0.483E-02
DAV: 103    -0.271546449320E+02   -0.38211E-03   -0.17253E-04 13120   0.690E-02    0.602E-02
DAV: 104    -0.271546690198E+02   -0.24088E-04   -0.11970E-05 11616   0.251E-02    0.601E-02
DAV: 105    -0.271546681655E+02    0.85431E-06   -0.18819E-06 10928   0.858E-03    0.604E-02
DAV: 106    -0.271546592513E+02    0.89142E-05   -0.48401E-06 10392   0.949E-03    0.605E-02
DAV: 107    -0.271546859610E+02   -0.26710E-04   -0.82791E-05 12152   0.334E-02    0.607E-02
DAV: 108    -0.271546896635E+02   -0.37025E-05   -0.45389E-05 13976   0.208E-02    0.628E-02
DAV: 109    -0.271546941498E+02   -0.44864E-05   -0.21544E-05 13216   0.143E-02    0.637E-02
DAV: 110    -0.271546465347E+02    0.47615E-04   -0.16171E-04 11520   0.523E-02    0.625E-02
DAV: 111    -0.271546547058E+02   -0.81711E-05   -0.40299E-05 11288   0.298E-02    0.625E-02
DAV: 112    -0.271545764728E+02    0.78233E-04   -0.27358E-04 12824   0.504E-02    0.659E-02
DAV: 113    -0.271544817591E+02    0.94714E-04   -0.41430E-04 13712   0.548E-02    0.669E-02
DAV: 114    -0.271544968193E+02   -0.15060E-04   -0.48011E-05 13160   0.231E-02    0.647E-02
DAV: 115    -0.271545128021E+02   -0.15983E-04   -0.33826E-06 10376   0.109E-02    0.640E-02
DAV: 116    -0.271544933988E+02    0.19403E-04   -0.17534E-05 12064   0.127E-02    0.654E-02
DAV: 117    -0.271544924166E+02    0.98219E-06   -0.19433E-03 12400   0.127E-01    0.555E-02
DAV: 118    -0.271546469670E+02   -0.15455E-03   -0.43517E-05 11560   0.409E-02    0.604E-02
DAV: 119    -0.271546751937E+02   -0.28227E-04   -0.18450E-05 11448   0.215E-02    0.596E-02
DAV: 120    -0.271547001940E+02   -0.25000E-04   -0.26805E-05 13648   0.150E-02    0.592E-02
DAV: 121    -0.271547229408E+02   -0.22747E-04   -0.18763E-05 13408   0.120E-02    0.593E-02
DAV: 122    -0.271546520063E+02    0.70935E-04   -0.31472E-04 12120   0.573E-02    0.562E-02
DAV: 123    -0.271547019198E+02   -0.49914E-04   -0.24894E-05 12104   0.228E-02    0.557E-02
DAV: 124    -0.271545385828E+02    0.16334E-03   -0.47169E-04 13424   0.633E-02    0.586E-02
DAV: 125    -0.271545302239E+02    0.83589E-05   -0.15026E-04 13656   0.384E-02    0.576E-02
DAV: 126    -0.271544361815E+02    0.94042E-04   -0.16103E-03 12328   0.131E-01    0.586E-02
DAV: 127    -0.271544975862E+02   -0.61405E-04   -0.10214E-03 11592   0.122E-01    0.542E-02
DAV: 128    -0.271546094423E+02   -0.11186E-03   -0.29344E-04 11232   0.720E-02    0.529E-02
DAV: 129    -0.271546890077E+02   -0.79565E-04   -0.18933E-04 13864   0.410E-02    0.507E-02
DAV: 130    -0.271547607966E+02   -0.71789E-04   -0.19078E-04 15112   0.361E-02    0.506E-02
DAV: 131    -0.271547726854E+02   -0.11889E-04   -0.98895E-06 10848   0.239E-02    0.528E-02
DAV: 132    -0.271536593313E+02    0.11134E-02   -0.11149E-02 14056   0.275E-01    0.751E-02
DAV: 133    -0.271539248648E+02   -0.26553E-03   -0.10632E-03 14552   0.106E-01    0.569E-02
DAV: 134    -0.271538213033E+02    0.10356E-03   -0.17072E-03 14016   0.107E-01    0.577E-02
DAV: 135    -0.271538743365E+02   -0.53033E-04   -0.42601E-04 14176   0.596E-02    0.530E-02
DAV: 136    -0.271539097787E+02   -0.35442E-04   -0.31819E-05 12568   0.266E-02    0.508E-02
DAV: 137    -0.271538498198E+02    0.59959E-04   -0.56435E-04 12152   0.768E-02    0.462E-02
DAV: 138    -0.271537576412E+02    0.92179E-04   -0.58118E-04 13000   0.743E-02    0.511E-02
DAV: 139    -0.271539120661E+02   -0.15442E-03   -0.10943E-02 13712   0.281E-01    0.355E-02
DAV: 140    -0.271543330206E+02   -0.42095E-03   -0.30387E-03 15376   0.156E-01    0.481E-02
DAV: 141    -0.271546466515E+02   -0.31363E-03   -0.23364E-03 14808   0.124E-01    0.512E-02
DAV: 142    -0.271548538043E+02   -0.20715E-03   -0.92389E-04 13992   0.845E-02    0.584E-02
DAV: 143    -0.271550140607E+02   -0.16026E-03   -0.12436E-03 15056   0.901E-02    0.606E-02
DAV: 144    -0.271547559807E+02    0.25808E-03   -0.21928E-03 12136   0.149E-01    0.708E-02
DAV: 145    -0.271548512425E+02   -0.95262E-04   -0.32847E-05 12704   0.335E-02    0.606E-02
DAV: 146    -0.271549421785E+02   -0.90936E-04   -0.36769E-04 12344   0.649E-02    0.609E-02
DAV: 147    -0.271546024842E+02    0.33969E-03   -0.20809E-03 12784   0.131E-01    0.702E-02
DAV: 148    -0.271541975927E+02    0.40489E-03   -0.34297E-03 15176   0.148E-01    0.695E-02
DAV: 149    -0.271544235970E+02   -0.22600E-03   -0.10150E-04 13072   0.499E-02    0.590E-02
DAV: 150    -0.271543293545E+02    0.94243E-04   -0.37873E-04 14984   0.472E-02    0.627E-02
DAV: 151    -0.271544115622E+02   -0.82208E-04   -0.31158E-04 11688   0.627E-02    0.590E-02
DAV: 152    -0.271543701538E+02    0.41408E-04   -0.71182E-05 12392   0.305E-02    0.651E-02
DAV: 153    -0.271544390894E+02   -0.68936E-04   -0.87429E-05 11760   0.309E-02    0.624E-02
DAV: 154    -0.271545437114E+02   -0.10462E-03   -0.61676E-04 13616   0.676E-02    0.615E-02
DAV: 155    -0.271545850977E+02   -0.41386E-04   -0.45798E-05 12992   0.275E-02    0.654E-02
DAV: 156    -0.271545841508E+02    0.94686E-06   -0.36042E-06 10544   0.118E-02    0.659E-02
DAV: 157    -0.271543908522E+02    0.19330E-03   -0.82885E-04 12816   0.813E-02    0.666E-02
DAV: 158    -0.271541393179E+02    0.25153E-03   -0.19402E-03 14600   0.113E-01    0.657E-02
DAV: 159    -0.271541804348E+02   -0.41117E-04   -0.22579E-04 13816   0.487E-02    0.587E-02
DAV: 160    -0.271540861401E+02    0.94295E-04   -0.43691E-04 15136   0.512E-02    0.594E-02
DAV: 161    -0.271541298197E+02   -0.43680E-04   -0.10989E-05 11792   0.206E-02    0.553E-02
DAV: 162    -0.271541956947E+02   -0.65875E-04   -0.24687E-04 12064   0.486E-02    0.523E-02
DAV: 163    -0.271543208608E+02   -0.12517E-03   -0.37619E-03 13888   0.160E-01    0.464E-02
DAV: 164    -0.271545601202E+02   -0.23926E-03   -0.26750E-03 14968   0.132E-01    0.512E-02
DAV: 165    -0.271547651671E+02   -0.20505E-03   -0.66230E-03 14816   0.208E-01    0.543E-02
DAV: 166    -0.271551194310E+02   -0.35426E-03   -0.29006E-04 13528   0.750E-02    0.669E-02
DAV: 167    -0.271549918063E+02    0.12762E-03   -0.68595E-04 12120   0.923E-02    0.689E-02
DAV: 168    -0.271549222668E+02    0.69539E-04   -0.23810E-04 14168   0.453E-02    0.652E-02
DAV: 169    -0.271547584273E+02    0.16384E-03   -0.66871E-04 14096   0.667E-02    0.658E-02
DAV: 170    -0.271548228859E+02   -0.64459E-04   -0.15257E-05 11680   0.244E-02    0.604E-02
DAV: 171    -0.271547957748E+02    0.27111E-04   -0.34384E-05 14200   0.160E-02    0.612E-02
DAV: 172    -0.271548523545E+02   -0.56580E-04   -0.10498E-02 13736   0.275E-01    0.554E-02
DAV: 173    -0.271551680294E+02   -0.31567E-03   -0.53111E-04 12272   0.106E-01    0.692E-02
DAV: 174    -0.271551669050E+02    0.11244E-05   -0.27190E-05 12712   0.276E-02    0.638E-02
DAV: 175    -0.271552270988E+02   -0.60194E-04   -0.12050E-04 12224   0.368E-02    0.626E-02
DAV: 176    -0.271552617495E+02   -0.34651E-04   -0.54618E-05 15256   0.206E-02    0.637E-02
DAV: 177    -0.271552634902E+02   -0.17407E-05   -0.59860E-05 12776   0.254E-02    0.642E-02
DAV: 178    -0.271552642057E+02   -0.71549E-06   -0.29886E-05 10968   0.282E-02    0.657E-02
DAV: 179    -0.271547476270E+02    0.51658E-03   -0.36185E-03 13536   0.165E-01    0.721E-02
DAV: 180    -0.271549480242E+02   -0.20040E-03   -0.61712E-05 12536   0.461E-02    0.595E-02
DAV: 181    -0.271549382047E+02    0.98195E-05   -0.70525E-05 13272   0.264E-02    0.609E-02
DAV: 182    -0.271544570782E+02    0.48113E-03   -0.31943E-03 13872   0.154E-01    0.658E-02
DAV: 183    -0.271546786752E+02   -0.22160E-03   -0.87539E-05 11984   0.509E-02    0.535E-02
DAV: 184    -0.271545914636E+02    0.87212E-04   -0.31469E-04 13464   0.458E-02    0.583E-02
DAV: 185    -0.271546585244E+02   -0.67061E-04   -0.10049E-04 12664   0.335E-02    0.559E-02
DAV: 186    -0.271547233174E+02   -0.64793E-04   -0.10852E-04 13128   0.313E-02    0.570E-02
DAV: 187    -0.271547552287E+02   -0.31911E-04   -0.60364E-05 13944   0.220E-02    0.588E-02
DAV: 188    -0.271547554156E+02   -0.18692E-06   -0.30026E-06 10784   0.132E-02    0.600E-02
DAV: 189    -0.271546562116E+02    0.99204E-04   -0.20449E-04 12384   0.435E-02    0.611E-02
DAV: 190    -0.271546530525E+02    0.31591E-05   -0.25693E-05 13096   0.178E-02    0.585E-02
DAV: 191    -0.271546422108E+02    0.10842E-04   -0.16003E-05 12984   0.117E-02    0.580E-02
DAV: 192    -0.271547719108E+02   -0.12970E-03   -0.10192E-03 12712   0.919E-02    0.544E-02
DAV: 193    -0.271548349992E+02   -0.63088E-04   -0.57876E-05 13112   0.303E-02    0.593E-02
DAV: 194    -0.271548886785E+02   -0.53679E-04   -0.16348E-04 14800   0.320E-02    0.579E-02
DAV: 195    -0.271549406890E+02   -0.52011E-04   -0.14221E-04 15088   0.304E-02    0.588E-02
DAV: 196    -0.271549455735E+02   -0.48845E-05   -0.88135E-06 11440   0.178E-02    0.605E-02
DAV: 197    -0.271549397952E+02    0.57783E-05   -0.27237E-03 13504   0.156E-01    0.667E-02
DAV: 198    -0.271550918805E+02   -0.15209E-03   -0.88993E-05 11824   0.518E-02    0.754E-02
DAV: 199    -0.271550994559E+02   -0.75755E-05   -0.61904E-06 11472   0.160E-02    0.729E-02
DAV: 200    -0.271550760988E+02    0.23357E-04   -0.38497E-05 11960   0.243E-02    0.725E-02
DAV: 201    -0.271550737864E+02    0.23123E-05   -0.56571E-06 12688   0.899E-03    0.710E-02
DAV: 202    -0.271549969722E+02    0.76814E-04   -0.16611E-04 13176   0.376E-02    0.711E-02
DAV: 203    -0.271549769726E+02    0.20000E-04   -0.34700E-05 13888   0.184E-02    0.688E-02
DAV: 204    -0.271549756930E+02    0.12796E-05   -0.57893E-06 11656   0.959E-03    0.683E-02
DAV: 205    -0.271549692464E+02    0.64466E-05   -0.50435E-06 10984   0.775E-03    0.683E-02
DAV: 206    -0.271549401031E+02    0.29143E-04   -0.22864E-05 12616   0.139E-02    0.689E-02
DAV: 207    -0.271537523454E+02    0.11878E-02   -0.13739E-02 14096   0.302E-01    0.859E-02
DAV: 208    -0.271544035537E+02   -0.65121E-03   -0.21960E-04 11976   0.903E-02    0.579E-02
DAV: 209    -0.271544437401E+02   -0.40186E-04   -0.14061E-05 13096   0.234E-02    0.600E-02
DAV: 210    -0.271543714961E+02    0.72244E-04   -0.17844E-04 13208   0.409E-02    0.602E-02
DAV: 211    -0.271543384340E+02    0.33062E-04   -0.98298E-05 13656   0.298E-02    0.596E-02
DAV: 212    -0.271544832751E+02   -0.14484E-03   -0.10858E-03 12544   0.948E-02    0.533E-02
DAV: 213    -0.271545771310E+02   -0.93856E-04   -0.27895E-04 15000   0.458E-02    0.575E-02
DAV: 214    -0.271546141650E+02   -0.37034E-04   -0.38520E-05 12480   0.251E-02    0.592E-02
DAV: 215    -0.271546049311E+02    0.92339E-05   -0.34487E-06 10016   0.125E-02    0.602E-02
DAV: 216    -0.271545760567E+02    0.28874E-04   -0.25588E-05 11688   0.157E-02    0.607E-02
DAV: 217    -0.271545880215E+02   -0.11965E-04   -0.46741E-06  9888   0.112E-02    0.598E-02
DAV: 218    -0.271545552050E+02    0.32816E-04   -0.39723E-05 11936   0.184E-02    0.610E-02
DAV: 219    -0.271545007029E+02    0.54502E-04   -0.11356E-04 14016   0.282E-02    0.608E-02
DAV: 220    -0.271544881754E+02    0.12528E-04   -0.31502E-05 13640   0.169E-02    0.587E-02
DAV: 221    -0.271544737389E+02    0.14436E-04   -0.17326E-05 12712   0.120E-02    0.581E-02
DAV: 222    -0.271544587746E+02    0.14964E-04   -0.27140E-04 11464   0.546E-02    0.541E-02
DAV: 223    -0.271543973301E+02    0.61445E-04   -0.19318E-04 12440   0.477E-02    0.556E-02
DAV: 224    -0.271543847380E+02    0.12592E-04   -0.38899E-05 13968   0.200E-02    0.534E-02
DAV: 225    -0.271544599319E+02   -0.75194E-04   -0.12523E-04 11856   0.363E-02    0.511E-02
DAV: 226    -0.271545970458E+02   -0.13711E-03   -0.35564E-03 13840   0.157E-01    0.486E-02
DAV: 227    -0.271547591102E+02   -0.16206E-03   -0.15244E-04 13392   0.538E-02    0.573E-02
DAV: 228    -0.271547612700E+02   -0.21598E-05   -0.14589E-05 11664   0.266E-02    0.573E-02
DAV: 229    -0.271547533378E+02    0.79323E-05   -0.11289E-06 11328   0.654E-03    0.578E-02
DAV: 230    -0.271546621242E+02    0.91214E-04   -0.18441E-04 12536   0.384E-02    0.593E-02
DAV: 231    -0.271545071680E+02    0.15496E-03   -0.60481E-04 14592   0.625E-02    0.602E-02
DAV: 232    -0.271547382166E+02   -0.23105E-03   -0.17393E-03 12328   0.125E-01    0.520E-02
DAV: 233    -0.271548236465E+02   -0.85430E-04   -0.11706E-04 13216   0.438E-02    0.613E-02
DAV: 234    -0.271548239751E+02   -0.32855E-06   -0.47134E-06 11016   0.160E-02    0.622E-02
DAV: 235    -0.271547870942E+02    0.36881E-04   -0.31080E-05 11856   0.182E-02    0.626E-02
DAV: 236    -0.271543104433E+02    0.47665E-03   -0.34569E-03 14016   0.156E-01    0.654E-02
DAV: 237    -0.271540835805E+02    0.22686E-03   -0.24287E-03 15352   0.132E-01    0.544E-02
DAV: 238    -0.271539043111E+02    0.17927E-03   -0.24241E-03 15096   0.123E-01    0.515E-02
DAV: 239    -0.271542634003E+02   -0.35909E-03   -0.13506E-03 12112   0.119E-01    0.382E-02
DAV: 240    -0.271543877741E+02   -0.12437E-03   -0.22711E-03 14824   0.123E-01    0.396E-02
DAV: 241    -0.271545719088E+02   -0.18413E-03   -0.11414E-03 15072   0.852E-02    0.439E-02
DAV: 242    -0.271546180038E+02   -0.46095E-04   -0.13883E-02 14480   0.298E-01    0.455E-02
DAV: 243    -0.271551477753E+02   -0.52977E-03   -0.30472E-04 12480   0.967E-02    0.581E-02
DAV: 244    -0.271550501713E+02    0.97604E-04   -0.46646E-04 11976   0.801E-02    0.600E-02
DAV: 245    -0.271550611412E+02   -0.10970E-04   -0.17564E-05 13280   0.204E-02    0.563E-02
DAV: 246    -0.271551549260E+02   -0.93785E-04   -0.32328E-04 12376   0.573E-02    0.546E-02
DAV: 247    -0.271552471383E+02   -0.92212E-04   -0.97091E-04 14560   0.883E-02    0.604E-02
DAV: 248    -0.271553460852E+02   -0.98947E-04   -0.34621E-04 15120   0.536E-02    0.656E-02
DAV: 249    -0.271552977803E+02    0.48305E-04   -0.14347E-04 11536   0.518E-02    0.695E-02
DAV: 250    -0.271553454776E+02   -0.47697E-04   -0.46919E-03 13728   0.199E-01    0.759E-02
DAV: 251    -0.271554562306E+02   -0.11075E-03   -0.16553E-03 15472   0.120E-01    0.981E-02
DAV: 252    -0.271552941185E+02    0.16211E-03   -0.30095E-03 14984   0.155E-01    0.129E-01
DAV: 253    -0.271554141491E+02   -0.12003E-03   -0.26409E-04 14008   0.621E-02    0.143E-01
DAV: 254    -0.271555610480E+02   -0.14690E-03   -0.15088E-03 12920   0.132E-01    0.122E-01
DAV: 255    -0.271555908156E+02   -0.29768E-04   -0.38859E-05 13520   0.330E-02    0.116E-01
DAV: 256    -0.271555916030E+02   -0.78734E-06   -0.30862E-06 10968   0.110E-02    0.116E-01
DAV: 257    -0.271555641172E+02    0.27486E-04   -0.43791E-04 13392   0.657E-02    0.109E-01
DAV: 258    -0.271555711415E+02   -0.70243E-05   -0.31449E-05 13088   0.244E-02    0.106E-01
DAV: 259    -0.271555649831E+02    0.61585E-05   -0.56600E-05 14464   0.220E-02    0.104E-01
DAV: 260    -0.271553905189E+02    0.17446E-03   -0.18618E-03 13928   0.127E-01    0.928E-02
DAV: 261    -0.271555034669E+02   -0.11295E-03   -0.81551E-05 11960   0.465E-02    0.873E-02
DAV: 262    -0.271554716167E+02    0.31850E-04   -0.53804E-04 13752   0.725E-02    0.100E-01
DAV: 263    -0.271555167513E+02   -0.45135E-04   -0.44005E-05 12184   0.320E-02    0.100E-01
DAV: 264    -0.271555215034E+02   -0.47521E-05   -0.71998E-05 13240   0.275E-02    0.949E-02
DAV: 265    -0.271555534392E+02   -0.31936E-04   -0.85453E-04 12752   0.943E-02    0.100E-01
DAV: 266    -0.271556253732E+02   -0.71934E-04   -0.11942E-04 13992   0.381E-02    0.103E-01
DAV: 267    -0.271555175432E+02    0.10783E-03   -0.11255E-03 12696   0.109E-01    0.967E-02
DAV: 268    -0.271556287587E+02   -0.11122E-03   -0.98849E-05 11968   0.441E-02    0.888E-02
DAV: 269    -0.271556707476E+02   -0.41989E-04   -0.39319E-05 12600   0.205E-02    0.878E-02
DAV: 270    -0.271556662984E+02    0.44493E-05   -0.28243E-06 10040   0.113E-02    0.882E-02
DAV: 271    -0.271556805535E+02   -0.14255E-04   -0.17546E-05 11736   0.142E-02    0.875E-02
DAV: 272    -0.271557295154E+02   -0.48962E-04   -0.18030E-04 12936   0.411E-02    0.868E-02
DAV: 273    -0.271557370309E+02   -0.75155E-05   -0.35887E-05 11688   0.279E-02    0.855E-02
DAV: 274    -0.271557347101E+02    0.23208E-05   -0.12550E-06 11176   0.659E-03    0.843E-02
DAV: 275    -0.271556552543E+02    0.79456E-04   -0.53291E-04 13520   0.719E-02    0.786E-02
DAV: 276    -0.271556897145E+02   -0.34460E-04   -0.14946E-05 12264   0.222E-02    0.738E-02
DAV: 277    -0.271557061245E+02   -0.16410E-04   -0.74309E-04 13184   0.847E-02    0.803E-02
DAV: 278    -0.271557370381E+02   -0.30914E-04   -0.12870E-05 11744   0.238E-02    0.843E-02
DAV: 279    -0.271556747092E+02    0.62329E-04   -0.29192E-04 12648   0.564E-02    0.805E-02
DAV: 280    -0.271556965790E+02   -0.21870E-04   -0.10444E-05 11992   0.196E-02    0.790E-02
DAV: 281    -0.271557011026E+02   -0.45237E-05   -0.97253E-06 11672   0.120E-02    0.808E-02
DAV: 282    -0.271533578419E+02    0.23433E-02   -0.31935E-02 14384   0.506E-01    0.974E-02
DAV: 283    -0.271547068413E+02   -0.13490E-02   -0.56921E-04 13784   0.132E-01    0.542E-02
DAV: 284    -0.271547498743E+02   -0.43033E-04   -0.28421E-04 13672   0.509E-02    0.564E-02
DAV: 285    -0.271545874294E+02    0.16244E-03   -0.98132E-04 15264   0.784E-02    0.569E-02
DAV: 286    -0.271545717415E+02    0.15688E-04   -0.30158E-04 14768   0.466E-02    0.525E-02
DAV: 287    -0.271545274665E+02    0.44275E-04   -0.36831E-04 13616   0.548E-02    0.492E-02
DAV: 288    -0.271546156654E+02   -0.88199E-04   -0.64447E-05 11552   0.367E-02    0.452E-02
DAV: 289    -0.271546453772E+02   -0.29712E-04   -0.37955E-05 13592   0.179E-02    0.457E-02
DAV: 290    -0.271546891471E+02   -0.43770E-04   -0.86639E-05 13064   0.255E-02    0.453E-02
DAV: 291    -0.271547732184E+02   -0.84071E-04   -0.94229E-04 13264   0.803E-02    0.431E-02
DAV: 292    -0.271549216075E+02   -0.14839E-03   -0.21242E-03 14800   0.114E-01    0.425E-02
DAV: 293    -0.271550814297E+02   -0.15982E-03   -0.34627E-04 13536   0.561E-02    0.474E-02
DAV: 294    -0.271550392448E+02    0.42185E-04   -0.11629E-04 11312   0.505E-02    0.524E-02
DAV: 295    -0.271550631255E+02   -0.23881E-04   -0.11368E-05 11304   0.147E-02    0.501E-02
DAV: 296    -0.271550517861E+02    0.11339E-04   -0.22059E-05 12120   0.181E-02    0.515E-02
DAV: 297    -0.271549517232E+02    0.10006E-03   -0.32039E-04 12512   0.520E-02    0.570E-02
DAV: 298    -0.271550751499E+02   -0.12343E-03   -0.17905E-04 11680   0.462E-02    0.517E-02
DAV: 299    -0.271550999667E+02   -0.24817E-04   -0.33185E-05 13840   0.189E-02    0.539E-02
DAV: 300    -0.271551056303E+02   -0.56636E-05   -0.92651E-06 12176   0.111E-02    0.546E-02
DAV: 301    -0.271551125241E+02   -0.68938E-05   -0.93680E-06 12416   0.917E-03    0.547E-02
DAV: 302    -0.271551136103E+02   -0.10861E-05   -0.17327E-05 11584   0.170E-02    0.553E-02
DAV: 303    -0.271550831926E+02    0.30418E-04   -0.36002E-05 11632   0.215E-02    0.558E-02
DAV: 304    -0.271550861196E+02   -0.29270E-05   -0.10908E-06 10160   0.657E-03    0.551E-02
DAV: 305    -0.271550878092E+02   -0.16896E-05   -0.18624E-05 11856   0.153E-02    0.541E-02
DAV: 306    -0.271550789664E+02    0.88428E-05   -0.13191E-05 12024   0.142E-02    0.536E-02
DAV: 307    -0.271550712705E+02    0.76960E-05   -0.15015E-05 12112   0.133E-02    0.534E-02
DAV: 308    -0.271550703904E+02    0.88008E-06   -0.79637E-06 11696   0.983E-03    0.532E-02
DAV: 309    -0.271550738584E+02   -0.34680E-05   -0.18987E-06  9640   0.697E-03    0.530E-02
DAV: 310    -0.271551479552E+02   -0.74097E-04   -0.18409E-04 12376   0.398E-02    0.516E-02
DAV: 311    -0.271551288457E+02    0.19110E-04   -0.19872E-05 11448   0.222E-02    0.544E-02
DAV: 312    -0.271551104588E+02    0.18387E-04   -0.10147E-04 12128   0.349E-02    0.549E-02
DAV: 313    -0.271550633575E+02    0.47101E-04   -0.74276E-05 12496   0.277E-02    0.560E-02
DAV: 314    -0.271550052139E+02    0.58144E-04   -0.19528E-04 12504   0.394E-02    0.560E-02
DAV: 315    -0.271550914093E+02   -0.86195E-04   -0.19335E-04 12128   0.483E-02    0.530E-02
DAV: 316    -0.271550966659E+02   -0.52567E-05   -0.10688E-05 11968   0.202E-02    0.558E-02
DAV: 317    -0.271551321772E+02   -0.35511E-04   -0.73280E-05 12128   0.287E-02    0.548E-02
DAV: 318    -0.271551231245E+02    0.90528E-05   -0.61853E-06 10392   0.147E-02    0.566E-02
DAV: 319    -0.271551119564E+02    0.11168E-04   -0.47613E-06 10696   0.901E-03    0.564E-02
DAV: 320    -0.271550835749E+02    0.28382E-04   -0.21991E-05 12632   0.133E-02    0.569E-02
DAV: 321    -0.271550598096E+02    0.23765E-04   -0.19807E-05 13016   0.119E-02    0.570E-02
DAV: 322    -0.271550425984E+02    0.17211E-04   -0.14546E-03 12976   0.121E-01    0.601E-02
DAV: 323    -0.271551018282E+02   -0.59230E-04   -0.94940E-05 12296   0.455E-02    0.632E-02
DAV: 324    -0.271550935861E+02    0.82421E-05   -0.74831E-05 12696   0.294E-02    0.620E-02
DAV: 325    -0.271551006569E+02   -0.70708E-05   -0.46165E-05 13768   0.201E-02    0.621E-02
DAV: 326    -0.271551794885E+02   -0.78832E-04   -0.21799E-04 13432   0.434E-02    0.616E-02
DAV: 327    -0.271552885239E+02   -0.10904E-03   -0.19575E-03 13656   0.123E-01    0.574E-02
DAV: 328    -0.271553983476E+02   -0.10982E-03   -0.11840E-04 13424   0.459E-02    0.611E-02
[...]
DAV:  31    -0.271604736036E+02   -0.32151E-05   -0.40822E-07  9688   0.180E-03    0.135E-03
DAV:  32    -0.271604746477E+02   -0.10441E-05   -0.21397E-07  9664   0.137E-03    0.123E-03
DAV:  33    -0.271604748437E+02   -0.19601E-06   -0.79766E-08  9208   0.114E-03    0.120E-03
DAV:  34    -0.271604724755E+02    0.23682E-05   -0.94820E-08  8976   0.111E-03    0.124E-03
DAV:  35    -0.271604753272E+02   -0.28518E-05   -0.18710E-07  9432   0.136E-03    0.115E-03
DAV:  36    -0.271604805382E+02   -0.52110E-05   -0.40673E-07 10376   0.166E-03    0.102E-03
DAV:  37    -0.271604849693E+02   -0.44311E-05   -0.94893E-05  8232   0.163E-03    0.983E-04
DAV:  38    -0.271604816475E+02    0.33219E-05   -0.23895E-07  8592   0.146E-03    0.102E-03
DAV:  39    -0.271604825878E+02   -0.94035E-06   -0.17968E-07  8664   0.127E-03    0.976E-04
DAV:  40    -0.271604815343E+02    0.10535E-05   -0.14687E-06  9912   0.230E-03    0.837E-04
DAV:  41    -0.271604767442E+02    0.47901E-05   -0.18192E-06  9664   0.334E-03    0.434E-04
DAV:  42    -0.271604816271E+02   -0.48829E-05   -0.17061E-06 10256   0.227E-03    0.387E-04
DAV:  43    -0.271604846443E+02   -0.30172E-05   -0.13608E-06  9608   0.207E-03    0.358E-04
DAV:  44    -0.271604825156E+02    0.21287E-05   -0.12068E-06  8784   0.235E-03    0.380E-04
DAV:  45    -0.271604842062E+02   -0.16906E-05   -0.24441E-06  9192   0.258E-03    0.392E-04
DAV:  46    -0.271604874974E+02   -0.32913E-05   -0.71566E-07  8808   0.157E-03    0.352E-04
DAV:  47    -0.271604899065E+02   -0.24091E-05   -0.22501E-07  9280   0.106E-03    0.339E-04
DAV:  48    -0.271604906642E+02   -0.75768E-06   -0.12709E-07  8528   0.835E-04    0.348E-04
DAV:  49    -0.271604903589E+02    0.30530E-06   -0.27947E-08  8000   0.632E-04    0.349E-04
DAV:  50    -0.271604890893E+02    0.12696E-05   -0.46673E-08  8024   0.713E-04    0.359E-04
DAV:  51    -0.271604924028E+02   -0.33136E-05   -0.37335E-07  9504   0.155E-03    0.362E-04
DAV:  52    -0.271604905535E+02    0.18493E-05   -0.18209E-07  9632   0.153E-03    0.390E-04
DAV:  53    -0.271604919088E+02   -0.13552E-05   -0.24275E-07  9008   0.133E-03    0.354E-04
DAV:  54    -0.271604903494E+02    0.15593E-05   -0.13144E-07  8368   0.115E-03    0.368E-04
DAV:  55    -0.271604904670E+02   -0.11759E-06   -0.35769E-08  8216   0.911E-04    0.374E-04
DAV:  56    -0.271604897555E+02    0.71149E-06   -0.43540E-08  7976   0.768E-04    0.382E-04
DAV:  57    -0.271604881504E+02    0.16051E-05   -0.27848E-06 10600   0.234E-03    0.379E-04
DAV:  58    -0.271604887351E+02   -0.58465E-06   -0.30769E-07  8560   0.109E-03    0.379E-04
DAV:  59    -0.271604900930E+02   -0.13579E-05   -0.34265E-07  9400   0.975E-04    0.376E-04
DAV:  60    -0.271604920258E+02   -0.19328E-05   -0.12209E-06  8176   0.146E-03    0.370E-04
DAV:  61    -0.271604945241E+02   -0.24983E-05   -0.49305E-07  8024   0.120E-03    0.355E-04
DAV:  62    -0.271604956148E+02   -0.10907E-05   -0.59968E-07  8856   0.120E-03    0.352E-04
DAV:  63    -0.271604928480E+02    0.27668E-05   -0.19160E-07  8656   0.106E-03    0.345E-04
DAV:  64    -0.271604920029E+02    0.84508E-06   -0.47545E-08  8088   0.715E-04    0.350E-04
DAV:  65    -0.271604919799E+02    0.23005E-07   -0.31267E-08  7312   0.658E-04
  33 F= -.27160492E+02 E0= -.27026935E+02  d E =0.620815E-04  mag=     4.8902
       N       E                     dE             d eps       ncg     rms          rms(c)
DAV:   1    -0.271604943897E+02   -0.23867E-05   -0.78459E-05 11808   0.407E-02    0.129E-02
DAV:   2    -0.271605203457E+02   -0.25956E-04   -0.28243E-05 14760   0.269E-02    0.248E-02
DAV:   3    -0.271606380671E+02   -0.11772E-03   -0.67521E-05 14712   0.252E-02    0.605E-02
DAV:   4    -0.271606215622E+02    0.16505E-04   -0.57623E-05 13576   0.183E-02    0.104E-02
DAV:   5    -0.271605722974E+02    0.49265E-04   -0.21727E-06 11520   0.668E-03    0.470E-03
DAV:   6    -0.271606059804E+02   -0.33683E-04   -0.10338E-06  9648   0.357E-03    0.310E-03
DAV:   7    -0.271605668825E+02    0.39098E-04   -0.18576E-06  9576   0.380E-03    0.326E-03
DAV:   8    -0.271605681509E+02   -0.12684E-05   -0.71302E-07  9160   0.287E-03    0.233E-03
DAV:   9    -0.271605593110E+02    0.88399E-05   -0.58771E-07 10320   0.246E-03    0.219E-03
DAV:  10    -0.271605485942E+02    0.10717E-04   -0.40389E-07 11024   0.202E-03    0.627E-04
DAV:  11    -0.271605441918E+02    0.44024E-05   -0.31324E-07  9824   0.162E-03    0.271E-04
DAV:  12    -0.272139996947E+02   -0.53456E-01   -0.12534E-03 10336   0.120E-03    0.109E+00
DAV:  13    -0.271603693920E+02    0.53630E-01   -0.13343E+01 12224   0.411E-01    0.837E-03
DAV:  14    -0.271604570208E+02   -0.87629E-04   -0.36093E-05 12672   0.336E-02    0.488E-03
DAV:  15    -0.271605183699E+02   -0.61349E-04   -0.41115E-06 12584   0.133E-02    0.240E-03
DAV:  16    -0.271605297187E+02   -0.11349E-04   -0.24960E-06 11584   0.551E-03    0.186E-03
DAV:  17    -0.271605244648E+02    0.52538E-05   -0.17501E-06 11440   0.350E-03    0.102E-03
DAV:  18    -0.271605263584E+02   -0.18935E-05   -0.52012E-07  9944   0.227E-03    0.954E-04
DAV:  19    -0.271605267174E+02   -0.35903E-06   -0.15552E-07  9424   0.143E-03    0.802E-04
DAV:  20    -0.271605270401E+02   -0.32269E-06   -0.24499E-07  9472   0.151E-03    0.674E-04
DAV:  21    -0.271605268561E+02    0.18397E-06   -0.15520E-07  9136   0.121E-03    0.546E-04
DAV:  22    -0.271605263010E+02    0.55511E-06   -0.80900E-08  8168   0.976E-04    0.487E-04
DAV:  23    -0.271605259853E+02    0.31566E-06   -0.48899E-08  7800   0.795E-04    0.453E-04
DAV:  24    -0.271605257147E+02    0.27059E-06   -0.35694E-08  7536   0.688E-04    0.435E-04
DAV:  25    -0.271605254019E+02    0.31280E-06   -0.70911E-08  7928   0.843E-04    0.435E-04
DAV:  26    -0.271605257495E+02   -0.34755E-06   -0.20659E-07  8776   0.147E-03    0.385E-04
DAV:  27    -0.271605941305E+02   -0.68381E-04   -0.40511E-06  9344   0.168E-03    0.580E-03
DAV:  28    -0.271605275918E+02    0.66539E-04   -0.85853E-03  8704   0.262E-03    0.258E-04
DAV:  29    -0.272330997331E+02   -0.72572E-01   -0.24758E-03  8416   0.178E-03    0.110E+00
DAV:  30    -0.271603121789E+02    0.72788E-01   -0.93771E+00 13032   0.243E-01    0.122E-02
DAV:  31    -0.271604280724E+02   -0.11589E-03   -0.20502E-04 12640   0.304E-02    0.653E-03
DAV:  32    -0.271604240835E+02    0.39889E-05   -0.43855E-06 10808   0.124E-02    0.240E-03
DAV:  33    -0.271604339642E+02   -0.98808E-05   -0.11883E-06 10240   0.635E-03    0.233E-03
DAV:  34    -0.271604373390E+02   -0.33748E-05   -0.42339E-07  9776   0.273E-03    0.201E-03
DAV:  35    -0.271604363196E+02    0.10194E-05   -0.64549E-07  9608   0.305E-03    0.151E-03
DAV:  36    -0.271604320141E+02    0.43055E-05   -0.40277E-07  9688   0.237E-03    0.114E-03
DAV:  37    -0.271604290404E+02    0.29737E-05   -0.40219E-07  9624   0.217E-03    0.104E-03
DAV:  38    -0.271604227428E+02    0.62976E-05   -0.83595E-07  9760   0.301E-03    0.973E-04
DAV:  39    -0.271604200522E+02    0.26905E-05   -0.60075E-07  9504   0.272E-03    0.888E-04
DAV:  40    -0.271604202625E+02   -0.21025E-06   -0.52618E-07  9600   0.248E-03    0.785E-04
DAV:  41    -0.271604194506E+02    0.81189E-06   -0.45605E-07  9512   0.228E-03    0.722E-04
DAV:  42    -0.271604185148E+02    0.93584E-06   -0.22723E-07  9184   0.189E-03    0.690E-04
DAV:  43    -0.271604182928E+02    0.22195E-06   -0.24750E-07  9200   0.163E-03    0.665E-04
DAV:  44    -0.271604186546E+02   -0.36181E-06   -0.18094E-07  8976   0.148E-03    0.647E-04
DAV:  45    -0.271604218025E+02   -0.31479E-05   -0.68941E-07  9640   0.257E-03    0.612E-04
DAV:  46    -0.271604260559E+02   -0.42534E-05   -0.10191E-06  9760   0.319E-03    0.607E-04
DAV:  47    -0.271604334549E+02   -0.73990E-05   -0.87911E-07  9880   0.294E-03    0.538E-04
DAV:  48    -0.271604426745E+02   -0.92196E-05   -0.76515E-07  9544   0.287E-03    0.435E-04
DAV:  49    -0.271604536090E+02   -0.10935E-04   -0.11183E-06  9992   0.287E-03    0.381E-04
DAV:  50    -0.271604672660E+02   -0.13657E-04   -0.11420E-06  9480   0.298E-03    0.407E-04
DAV:  51    -0.271604722910E+02   -0.50251E-05   -0.48311E-07  9208   0.220E-03    0.424E-04
DAV:  52    -0.271604690613E+02    0.32298E-05   -0.66069E-07  9248   0.227E-03    0.409E-04
DAV:  53    -0.271604705389E+02   -0.14776E-05   -0.26639E-07  9728   0.162E-03    0.390E-04
DAV:  54    -0.271604723915E+02   -0.18526E-05   -0.20667E-07  8736   0.159E-03    0.359E-04
DAV:  55    -0.271604749635E+02   -0.25721E-05   -0.17421E-07  8752   0.146E-03    0.335E-04
DAV:  56    -0.271604795112E+02   -0.45476E-05   -0.33788E-07  9568   0.168E-03    0.332E-04
DAV:  57    -0.271604832727E+02   -0.37615E-05   -0.10109E-06  9240   0.291E-03    0.306E-04
DAV:  58    -0.271604866067E+02   -0.33340E-05   -0.28136E-07  9808   0.145E-03    0.297E-04
DAV:  59    -0.271604871884E+02   -0.58162E-06   -0.32469E-07  8856   0.166E-03    0.296E-04
DAV:  60    -0.271604966030E+02   -0.94146E-05   -0.63630E-07  9232   0.247E-03    0.287E-04
DAV:  61    -0.271605006048E+02   -0.40018E-05   -0.24512E-07  9576   0.152E-03    0.286E-04
DAV:  62    -0.271605007559E+02   -0.15106E-06   -0.65756E-08  7880   0.972E-04    0.287E-04
DAV:  63    -0.271605057441E+02   -0.49882E-05   -0.28145E-07  9256   0.167E-03    0.285E-04
DAV:  64    -0.271605119066E+02   -0.61625E-05   -0.30288E-07 10368   0.152E-03    0.287E-04
DAV:  65    -0.271605170074E+02   -0.51008E-05   -0.35853E-07 10576   0.139E-03    0.289E-04
DAV:  66    -0.271605177090E+02   -0.70155E-06   -0.44525E-08  7448   0.793E-04    0.291E-04
DAV:  67    -0.271604648461E+02    0.52863E-04   -0.87639E-06  9696   0.490E-03    0.274E-04
DAV:  68    -0.271604670555E+02   -0.22094E-05   -0.15901E-06  9688   0.315E-03    0.226E-04
DAV:  69    -0.271604711808E+02   -0.41253E-05   -0.56615E-07  9256   0.240E-03    0.229E-04
DAV:  70    -0.271604741739E+02   -0.29931E-05   -0.15418E-07  8456   0.138E-03    0.224E-04
DAV:  71    -0.271604780796E+02   -0.39057E-05   -0.14672E-07  8168   0.132E-03    0.236E-04
DAV:  72    -0.271605082228E+02   -0.30143E-04   -0.90428E-07  8976   0.211E-03    0.402E-04
DAV:  73    -0.271605085068E+02   -0.28405E-06   -0.16179E-07  8880   0.102E-03    0.239E-04
DAV:  74    -0.271605079873E+02    0.51953E-06   -0.32267E-08  7256   0.798E-04    0.238E-04
DAV:  75    -0.271605076785E+02    0.30876E-06   -0.41378E-08  7504   0.706E-04    0.239E-04
DAV:  76    -0.271605079153E+02   -0.23678E-06   -0.86491E-08  8184   0.805E-04    0.217E-04
DAV:  77    -0.271605058391E+02    0.20762E-05   -0.30895E-07  9304   0.142E-03    0.172E-04
DAV:  78    -0.271604954433E+02    0.10396E-04   -0.77670E-07  8776   0.218E-03    0.154E-04
DAV:  79    -0.271604966827E+02   -0.12394E-05   -0.44551E-07  8144   0.159E-03    0.171E-04
DAV:  80    -0.271605014325E+02   -0.47499E-05   -0.59114E-07  9968   0.207E-03    0.161E-04
DAV:  81    -0.271605024564E+02   -0.10239E-05   -0.24450E-07  8152   0.147E-03    0.163E-04
DAV:  82    -0.271605052374E+02   -0.27810E-05   -0.39613E-07  9088   0.196E-03    0.175E-04
DAV:  83    -0.271605068336E+02   -0.15962E-05   -0.13129E-07  9576   0.103E-03    0.176E-04
DAV:  84    -0.271605126770E+02   -0.58434E-05   -0.21404E-06 10984   0.267E-03    0.193E-04
DAV:  85    -0.271605162434E+02   -0.35664E-05   -0.45247E-07  9056   0.171E-03    0.225E-04
DAV:  86    -0.271605202900E+02   -0.40466E-05   -0.36184E-07  8544   0.182E-03    0.221E-04
DAV:  87    -0.271605236935E+02   -0.34035E-05   -0.10306E-06 10352   0.227E-03    0.200E-04
DAV:  88    -0.271605205078E+02    0.31857E-05   -0.23245E-06  9488   0.290E-03    0.124E-04
DAV:  89    -0.271605112703E+02    0.92376E-05   -0.21263E-06  9696   0.286E-03    0.112E-04
DAV:  90    -0.271605087366E+02    0.25336E-05   -0.94764E-07 10344   0.195E-03    0.114E-04
DAV:  91    -0.271605090814E+02   -0.34471E-06   -0.57995E-07 10312   0.181E-03    0.113E-04
DAV:  92    -0.271605080885E+02    0.99284E-06   -0.13413E-06 11288   0.217E-03    0.124E-04
DAV:  93    -0.271605085194E+02   -0.43091E-06   -0.80071E-07  8288   0.198E-03    0.128E-04
DAV:  94    -0.271605081743E+02    0.34510E-06   -0.36541E-07  7976   0.145E-03    0.131E-04
DAV:  95    -0.271605078998E+02    0.27456E-06   -0.52894E-07  7560   0.111E-03    0.139E-04
DAV:  96    -0.271605120034E+02   -0.41037E-05   -0.75521E-05  8528   0.369E-03    0.145E-04
DAV:  97    -0.271605124826E+02   -0.47920E-06   -0.13397E-06  9056   0.222E-03    0.140E-04
DAV:  98    -0.271605128598E+02   -0.37719E-06   -0.14496E-07  7824   0.105E-03    0.143E-04
DAV:  99    -0.271605139811E+02   -0.11212E-05   -0.25631E-07  8448   0.130E-03    0.145E-04
DAV: 100    -0.271605145885E+02   -0.60748E-06   -0.75842E-08  7928   0.798E-04    0.139E-04
DAV: 101    -0.271605169184E+02   -0.23299E-05   -0.33397E-07  9112   0.131E-03    0.131E-04
DAV: 102    -0.271605190326E+02   -0.21141E-05   -0.21328E-07  9480   0.102E-03    0.122E-04
DAV: 103    -0.271605195975E+02   -0.56493E-06   -0.24970E-07  9072   0.122E-03    0.124E-04
DAV: 104    -0.271605203849E+02   -0.78742E-06   -0.97755E-08  8360   0.950E-04    0.116E-04
DAV: 105    -0.271605213240E+02   -0.93906E-06   -0.98809E-08  8888   0.767E-04    0.102E-04
DAV: 106    -0.271605209524E+02    0.37155E-06   -0.24288E-07  9280   0.129E-03    0.842E-05
DAV: 107    -0.271605222165E+02   -0.12641E-05   -0.31361E-07  8880   0.144E-03    0.907E-05
DAV: 108    -0.271605211593E+02    0.10572E-05   -0.11301E-07  9376   0.108E-03    0.846E-05
DAV: 109    -0.271605207676E+02    0.39169E-06   -0.84340E-08  9400   0.823E-04    0.881E-05
DAV: 110    -0.271605207297E+02    0.37923E-07   -0.36237E-08  8880   0.657E-04
  34 F= -.27160521E+02 E0= -.27026968E+02  d E =0.333317E-04  mag=     4.8902
       N       E                     dE             d eps       ncg     rms          rms(c)
DAV:   1    -0.271605278461E+02   -0.70785E-05   -0.49302E-04 11816   0.988E-02    0.313E-02
DAV:   2    -0.271606603066E+02   -0.13246E-03   -0.12615E-04 15032   0.670E-02    0.650E-02
DAV:   3    -0.271609486174E+02   -0.28831E-03   -0.51800E-04 15856   0.617E-02    0.176E-01
DAV:   4    -0.271609065443E+02    0.42073E-04   -0.44698E-04 15544   0.483E-02    0.260E-02
DAV:   5    -0.271607635550E+02    0.14299E-03   -0.14202E-05 13944   0.155E-02    0.599E-03
DAV:   6    -0.271607935502E+02   -0.29995E-04   -0.21008E-06 11600   0.659E-03    0.683E-03
DAV:   7    -0.271607082367E+02    0.85314E-04   -0.85406E-06 12776   0.750E-03    0.126E-02
DAV:   8    -0.271606646315E+02    0.43605E-04   -0.13494E-05 10568   0.892E-03    0.997E-03
DAV:   9    -0.271606358479E+02    0.28784E-04   -0.51393E-06  9776   0.632E-03    0.377E-03
DAV:  10    -0.271605975768E+02    0.38271E-04   -0.22468E-06  9552   0.380E-03    0.146E-03
DAV:  11    -0.271605878024E+02    0.97745E-05   -0.21490E-06  8496   0.227E-03    0.713E-04
DAV:  12    -0.271605510340E+02    0.36768E-04   -0.99566E-07  8224   0.229E-03    0.859E-04
DAV:  13    -0.271605380379E+02    0.12996E-04   -0.41959E-07  8616   0.170E-03    0.306E-04
DAV:  14    -0.271605342936E+02    0.37443E-05   -0.16623E-07  8376   0.120E-03    0.444E-04
DAV:  15    -0.271605329555E+02    0.13381E-05   -0.86143E-08  8496   0.925E-04    0.385E-04
DAV:  16    -0.271605305170E+02    0.24385E-05   -0.25821E-07  9016   0.137E-03    0.355E-04
DAV:  17    -0.271605263521E+02    0.41649E-05   -0.50356E-07  9816   0.181E-03    0.216E-04
DAV:  18    -0.271605272349E+02   -0.88277E-06   -0.24390E-07  9448   0.143E-03    0.291E-04
DAV:  19    -0.271605263715E+02    0.86345E-06   -0.38212E-07  9760   0.154E-03    0.230E-04
DAV:  20    -0.271605225399E+02    0.38315E-05   -0.28927E-06 11624   0.315E-03    0.191E-04
DAV:  21    -0.273304897539E+02   -0.16997E+00   -0.24098E-01 12576   0.311E-03    0.186E+00
DAV:  22    -0.271573044205E+02    0.17319E+00   -0.10022E+01 12552   0.481E-01    0.215E-02
DAV:  23    -0.271603631623E+02   -0.30587E-02   -0.24136E-02 13224   0.900E-02    0.127E-02
DAV:  24    -0.271606277995E+02   -0.26464E-03   -0.25187E-03 13224   0.329E-02    0.747E-03
DAV:  25    -0.271605909513E+02    0.36848E-04   -0.78716E-05 13336   0.108E-02    0.460E-03
DAV:  26    -0.271605718204E+02    0.19131E-04   -0.85422E-06 11920   0.623E-03    0.286E-03
DAV:  27    -0.271605525539E+02    0.19267E-04   -0.15645E-06 11432   0.479E-03    0.239E-03
DAV:  28    -0.271605443874E+02    0.81665E-05   -0.15020E-06 10336   0.424E-03    0.199E-03
DAV:  29    -0.271605469428E+02   -0.25555E-05   -0.13972E-06  9904   0.357E-03    0.171E-03
DAV:  30    -0.271605450651E+02    0.18777E-05   -0.40511E-06 11472   0.438E-03    0.132E-03
DAV:  31    -0.271605528433E+02   -0.77781E-05   -0.49910E-06 10904   0.404E-03    0.105E-03
DAV:  32    -0.271605553354E+02   -0.24922E-05   -0.24263E-06  9904   0.366E-03    0.784E-04
DAV:  33    -0.271605580940E+02   -0.27585E-05   -0.18472E-06 10288   0.287E-03    0.589E-04
DAV:  34    -0.271605562745E+02    0.18194E-05   -0.18679E-06  9744   0.290E-03    0.431E-04
DAV:  35    -0.271605532157E+02    0.30588E-05   -0.11548E-06  9888   0.209E-03    0.308E-04
DAV:  36    -0.271605549906E+02   -0.17749E-05   -0.24914E-06  9384   0.288E-03    0.248E-04
DAV:  37    -0.271605523057E+02    0.26849E-05   -0.12868E-06  9600   0.211E-03    0.169E-04
DAV:  38    -0.271605545579E+02   -0.22523E-05   -0.17263E-06  9032   0.237E-03    0.134E-04
DAV:  39    -0.271605557582E+02   -0.12003E-05   -0.32085E-07  8992   0.150E-03    0.115E-04
DAV:  40    -0.271605573927E+02   -0.16345E-05   -0.53565E-07  9520   0.161E-03    0.861E-05
DAV:  41    -0.271605606224E+02   -0.32297E-05   -0.10065E-06  9744   0.197E-03    0.730E-05
DAV:  42    -0.271605588172E+02    0.18052E-05   -0.10391E-06  9840   0.170E-03    0.592E-05
DAV:  43    -0.271605609787E+02   -0.21615E-05   -0.34183E-07  9736   0.148E-03    0.571E-05
DAV:  44    -0.271605592346E+02    0.17442E-05   -0.23102E-07  9784   0.120E-03    0.633E-05
DAV:  45    -0.271605591305E+02    0.10410E-06   -0.39469E-07 10696   0.124E-03    0.751E-05
DAV:  46    -0.271605587328E+02    0.39764E-06   -0.28916E-07  9816   0.106E-03    0.729E-05
DAV:  47    -0.271605582637E+02    0.46913E-06   -0.66164E-08  8712   0.578E-04    0.746E-05
DAV:  48    -0.271629217017E+02   -0.23634E-02   -0.44114E-04  9136   0.809E-04    0.120E-01
DAV:  49    -0.271604984850E+02    0.24232E-02   -0.10181E+00 10272   0.289E-02    0.104E-03
DAV:  50    -0.271605089624E+02   -0.10477E-04   -0.11375E-05 10528   0.849E-03    0.715E-04
DAV:  51    -0.271605244625E+02   -0.15500E-04   -0.19645E-06  9952   0.500E-03    0.325E-04
DAV:  52    -0.271605383380E+02   -0.13876E-04   -0.19819E-06 10488   0.321E-03    0.270E-04
DAV:  53    -0.271605509509E+02   -0.12613E-04   -0.50417E-06 10256   0.317E-03    0.171E-04
DAV:  54    -0.271605560177E+02   -0.50668E-05   -0.42335E-06  8792   0.287E-03    0.158E-04
DAV:  55    -0.271605601768E+02   -0.41591E-05   -0.26454E-06  8808   0.255E-03    0.142E-04
DAV:  56    -0.271605611936E+02   -0.10168E-05   -0.29961E-06  9000   0.189E-03    0.131E-04
DAV:  57    -0.271605613111E+02   -0.11743E-06   -0.26799E-07  8936   0.589E-04    0.127E-04
DAV:  58    -0.271605621116E+02   -0.80057E-06   -0.99478E-08  9064   0.556E-04    0.125E-04
DAV:  59    -0.271605629079E+02   -0.79621E-06   -0.17484E-07  9264   0.546E-04    0.112E-04
DAV:  60    -0.271605632409E+02   -0.33307E-06   -0.31141E-08  8584   0.366E-04    0.104E-04
DAV:  61    -0.271605634846E+02   -0.24367E-06   -0.17078E-08  7840   0.264E-04    0.100E-04
DAV:  62    -0.271605639010E+02   -0.41640E-06   -0.37042E-08  8648   0.328E-04    0.953E-05
DAV:  63    -0.271605641364E+02   -0.23539E-06   -0.60771E-08  9032   0.456E-04    0.899E-05
DAV:  64    -0.271605643025E+02   -0.16615E-06   -0.23198E-08  8152   0.350E-04    0.875E-05
DAV:  65    -0.271605642513E+02    0.51231E-07   -0.12385E-08  7536   0.304E-04
  35 F= -.27160564E+02 E0= -.27027016E+02  d E =-.435216E-04  mag=     4.8902
