       N       E                     dE             d eps       ncg     rms          rms(c)
DAV:   1     0.128636493051E+03    0.12864E+03   -0.54887E+03  1728   0.808E+02
DAV:   2     0.721205386409E+01   -0.12142E+03   -0.11269E+03  2728   0.136E+02
DAV:   3    -0.560990139178E+01   -0.12822E+02   -0.12595E+02  2264   0.539E+01
DAV:   4    -0.594129167294E+01   -0.33139E+00   -0.33112E+00  2600   0.884E+00
DAV:   5    -0.594449579665E+01   -0.32041E-02   -0.32040E-02  2560   0.929E-01    0.775E+00
DAV:   6    -0.963801053649E+01   -0.36935E+01   -0.32681E+01  2656   0.951E+00    0.890E+00
DAV:   7    -0.477819952800E+01    0.48598E+01   -0.47696E+02  1976   0.130E+02    0.485E+00
DAV:   8    -0.534480753336E+01   -0.56661E+00   -0.57220E-01  2064   0.481E+00    0.300E+00
DAV:   9    -0.537163065340E+01   -0.26823E-01   -0.11404E-01  2128   0.263E+00    0.233E+00
DAV:  10    -0.543180865967E+01   -0.60178E-01   -0.27538E-02  2208   0.137E+00    0.188E+00
DAV:  11    -0.564091042948E+01   -0.20910E+00   -0.10261E-01  2136   0.199E+00    0.924E-01
DAV:  12    -0.572667508482E+01   -0.85765E-01   -0.85253E-02  2040   0.213E+00    0.567E-01
DAV:  13    -0.573710443799E+01   -0.10429E-01   -0.15914E-02  2136   0.887E-01    0.560E-01
DAV:  14    -0.573928994399E+01   -0.21855E-02   -0.44944E-03  2016   0.411E-01    0.480E-01
DAV:  15    -0.574374016268E+01   -0.44502E-02   -0.13361E-03  1896   0.307E-01    0.392E-01
DAV:  16    -0.575015303000E+01   -0.64129E-02   -0.24632E-03  1752   0.394E-01    0.232E-01
DAV:  17    -0.576168957950E+01   -0.11537E-01   -0.17205E-03  1872   0.303E-01    0.136E-01
DAV:  18    -0.577200185502E+01   -0.10312E-01   -0.19470E-03  1808   0.342E-01    0.811E-02
DAV:  19    -0.577622788382E+01   -0.42260E-02   -0.13317E-03  1936   0.281E-01    0.398E-02
DAV:  20    -0.577480182551E+01    0.14261E-02   -0.41840E-04  2136   0.156E-01    0.191E-02
DAV:  21    -0.577566708687E+01   -0.86526E-03   -0.18616E-04  1840   0.117E-01    0.121E-02
DAV:  22    -0.577627405135E+01   -0.60696E-03   -0.33028E-04  1776   0.156E-01    0.334E-03
DAV:  23    -0.577629434623E+01   -0.20295E-04   -0.60263E-05  2144   0.486E-02    0.512E-03
DAV:  24    -0.577631582041E+01   -0.21474E-04   -0.42491E-05  2048   0.321E-02    0.631E-03
DAV:  25    -0.577639476489E+01   -0.78944E-04   -0.35238E-05  1896   0.437E-02    0.402E-03
DAV:  26    -0.577644818392E+01   -0.53419E-04   -0.15243E-05  2056   0.324E-02    0.198E-03
DAV:  27    -0.577646880067E+01   -0.20617E-04   -0.41019E-06  1752   0.185E-02    0.808E-04
DAV:  28    -0.577648863918E+01   -0.19839E-04   -0.48682E-06  1952   0.122E-02    0.238E-04
DAV:  29    -0.577648780333E+01    0.83585E-06   -0.38142E-06  2176   0.860E-03    0.253E-04
DAV:  30    -0.577648988492E+01   -0.20816E-05   -0.43243E-06  1968   0.829E-03    0.138E-04
DAV:  31    -0.577649489100E+01   -0.50061E-05   -0.84499E-06  1880   0.851E-03    0.333E-05
DAV:  32    -0.577650298814E+01   -0.80971E-05   -0.36335E-06  1600   0.558E-03    0.490E-05
DAV:  33    -0.577651337916E+01   -0.10391E-04   -0.60372E-06  1888   0.465E-03    0.275E-05
DAV:  34    -0.577651690958E+01   -0.35304E-05   -0.63121E-06  1768   0.387E-03    0.175E-05
DAV:  35    -0.577652156809E+01   -0.46585E-05   -0.46169E-06  1456   0.390E-03    0.430E-05
DAV:  36    -0.577652589449E+01   -0.43264E-05   -0.10498E-06  1544   0.242E-03    0.256E-05
DAV:  37    -0.577653053887E+01   -0.46444E-05   -0.18063E-06  1400   0.257E-03    0.987E-06
DAV:  38    -0.577796862887E+01   -0.14381E-02   -0.12309E-03  1432   0.336E-03    0.410E-02
DAV:  39    -0.577655304232E+01    0.14156E-02   -0.71359E-01  1560   0.480E-02    0.116E-04
DAV:  40    -0.577655479011E+01   -0.17478E-05   -0.11510E-05  1664   0.604E-03    0.143E-04
DAV:  41    -0.577655899184E+01   -0.42017E-05   -0.14064E-05  1616   0.635E-03    0.563E-05
DAV:  42    -0.577655857634E+01    0.41550E-06   -0.14942E-06  1720   0.270E-03    0.316E-05
DAV:  43    -0.577655842821E+01    0.14813E-06   -0.12236E-06  1576   0.182E-03    0.264E-05
DAV:  44    -0.577659695050E+01   -0.38522E-04   -0.10427E-04  1768   0.109E-03    0.204E-03
DAV:  45    -0.577656032456E+01    0.36626E-04   -0.21656E-02  1648   0.481E-03    0.179E-05
DAV:  46    -0.577655850572E+01    0.18188E-05   -0.42506E-07  1544   0.960E-04    0.175E-05
DAV:  47    -0.577655852204E+01   -0.16323E-07   -0.20296E-07  1480   0.826E-04
   1 F= -.57765585E+01 E0= -.57574943E+01  d E =-.577656E+01  mag=     0.0000
       N       E                     dE             d eps       ncg     rms          rms(c)
DAV:   1    -0.581092234520E+01   -0.34364E-01   -0.79589E-01  1904   0.675E+00    0.119E+00
DAV:   2    -0.576381656545E+01    0.47106E-01   -0.19845E-01  2200   0.385E+00    0.490E-01
DAV:   3    -0.576963484438E+01   -0.58183E-02   -0.23729E-02  1976   0.139E+00    0.181E-01
DAV:   4    -0.577501390122E+01   -0.53791E-02   -0.47605E-03  1896   0.325E-01    0.579E-02
DAV:   5    -0.577562813517E+01   -0.61423E-03   -0.73430E-04  2320   0.213E-01    0.399E-02
DAV:   6    -0.577727999672E+01   -0.16519E-02   -0.74417E-05  2088   0.679E-02    0.187E-02
DAV:   7    -0.577817452200E+01   -0.89453E-03   -0.11313E-05  1912   0.183E-02    0.727E-03
DAV:   8    -0.577832723301E+01   -0.15271E-03   -0.19880E-06  1936   0.944E-03    0.200E-03
DAV:   9    -0.577838842785E+01   -0.61195E-04   -0.13606E-06  1608   0.735E-03    0.670E-04
DAV:  10    -0.577839850969E+01   -0.10082E-04   -0.17940E-06  1760   0.685E-03    0.379E-04
DAV:  11    -0.577840627935E+01   -0.77697E-05   -0.20112E-06  1840   0.782E-03    0.344E-04
DAV:  12    -0.577840851335E+01   -0.22340E-05   -0.18230E-06  2032   0.681E-03    0.154E-04
DAV:  13    -0.577840975854E+01   -0.12452E-05   -0.30589E-06  2152   0.790E-03    0.158E-04
DAV:  14    -0.577840994378E+01   -0.18523E-06   -0.52913E-06  2096   0.963E-03    0.763E-05
DAV:  15    -0.577840681311E+01    0.31307E-05   -0.76570E-06  1808   0.974E-03    0.428E-05
DAV:  16    -0.577856472210E+01   -0.15791E-03   -0.45771E-04  1784   0.833E-03    0.666E-03
DAV:  17    -0.577840367666E+01    0.16105E-03   -0.80519E-02  1456   0.141E-02    0.300E-05
DAV:  18    -0.577840730188E+01   -0.36252E-05   -0.75856E-06  1536   0.614E-03    0.258E-05
DAV:  19    -0.577841025124E+01   -0.29494E-05   -0.19236E-06  1448   0.357E-03    0.184E-05
DAV:  20    -0.577841114726E+01   -0.89602E-06   -0.50000E-06  1560   0.360E-03    0.154E-05
DAV:  21    -0.578702837788E+01   -0.86172E-02   -0.38608E-03  1448   0.388E-03    0.135E-01
DAV:  22    -0.577840146506E+01    0.86269E-02   -0.28415E+00  1936   0.183E-01    0.357E-04
DAV:  23    -0.577843225111E+01   -0.30786E-04   -0.17654E-06  2072   0.622E-03    0.183E-04
DAV:  24    -0.577843033652E+01    0.19146E-05   -0.38555E-07  1784   0.225E-03    0.100E-04
DAV:  25    -0.577842729003E+01    0.30465E-05   -0.13025E-07  1664   0.814E-04    0.841E-05
DAV:  26    -0.577842518037E+01    0.21097E-05   -0.73392E-07  1776   0.130E-03    0.610E-05
DAV:  27    -0.577842324763E+01    0.19327E-05   -0.79786E-07  1736   0.150E-03    0.492E-05
DAV:  28    -0.577842285755E+01    0.39007E-06   -0.13144E-07  1464   0.104E-03    0.418E-05
DAV:  29    -0.577842181644E+01    0.10411E-05   -0.26705E-07  1440   0.135E-03    0.370E-05
DAV:  30    -0.577842096106E+01    0.85538E-06   -0.99705E-08  1472   0.892E-04    0.317E-05
DAV:  31    -0.577842048385E+01    0.47721E-06   -0.69340E-08  1680   0.683E-04    0.299E-05
DAV:  32    -0.577842007811E+01    0.40574E-06   -0.78575E-08  1448   0.862E-04    0.290E-05
DAV:  33    -0.577842011137E+01   -0.33259E-07   -0.22871E-08  1520   0.528E-04
   2 F= -.57784201E+01 E0= -.57598949E+01  d E =-.186159E-02  mag=    -0.0000
       N       E                     dE             d eps       ncg     rms          rms(c)
DAV:   1    -0.578484314533E+01   -0.64231E-02   -0.10869E-01  1968   0.250E+00    0.428E-01
DAV:   2    -0.578895689049E+01   -0.41137E-02   -0.25669E-02  2048   0.141E+00    0.183E-01
DAV:   3    -0.578360315283E+01    0.53537E-02   -0.30308E-03  1984   0.492E-01    0.765E-02
DAV:   4    -0.578099962335E+01    0.26035E-02   -0.64536E-04  1912   0.121E-01    0.190E-02
DAV:   5    -0.578074532362E+01    0.25430E-03   -0.81583E-05  2088   0.684E-02    0.154E-02
DAV:   6    -0.578010492661E+01    0.64040E-03   -0.88670E-06  1888   0.235E-02    0.616E-03
DAV:   7    -0.577981030149E+01    0.29463E-03   -0.16051E-06  2064   0.685E-03    0.230E-03
DAV:   8    -0.577978816081E+01    0.22141E-04   -0.15780E-07  1432   0.222E-03    0.818E-04
DAV:   9    -0.577977079179E+01    0.17369E-04   -0.13249E-07  1576   0.180E-03    0.227E-04
DAV:  10    -0.577977591456E+01   -0.51228E-05   -0.10875E-07  1672   0.145E-03    0.120E-04
DAV:  11    -0.577978125017E+01   -0.53356E-05   -0.28672E-07  1712   0.208E-03    0.100E-04
DAV:  12    -0.577978253489E+01   -0.12847E-05   -0.18637E-07  1824   0.143E-03    0.689E-05
DAV:  13    -0.577978785882E+01   -0.53239E-05   -0.56969E-07  1976   0.206E-03    0.369E-05
DAV:  14    -0.577979686950E+01   -0.90107E-05   -0.16264E-06  1888   0.271E-03    0.311E-05
DAV:  15    -0.577979944707E+01   -0.25776E-05   -0.31444E-07  1656   0.133E-03    0.166E-05
DAV:  16    -0.577980291241E+01   -0.34653E-05   -0.56083E-07  1384   0.162E-03    0.904E-06
DAV:  17    -0.577980485479E+01   -0.19424E-05   -0.48903E-07  1376   0.146E-03    0.647E-06
DAV:  18    -0.577980802927E+01   -0.31745E-05   -0.25847E-06  1400   0.223E-03    0.622E-06
DAV:  19    -0.577980925863E+01   -0.12294E-05   -0.10394E-06  1376   0.159E-03    0.353E-06
DAV:  20    -0.577981179947E+01   -0.25408E-05   -0.49909E-07  1360   0.138E-03    0.327E-06
DAV:  21    -0.577980990674E+01    0.18927E-05   -0.72979E-07  1344   0.129E-03    0.420E-06
DAV:  22    -0.577980758059E+01    0.23262E-05   -0.83266E-07  1360   0.149E-03    0.467E-06
DAV:  23    -0.578425877686E+01   -0.44512E-02   -0.18018E-03  1408   0.298E-03    0.933E-02
DAV:  24    -0.577981318435E+01    0.44456E-02   -0.15047E+00  1576   0.100E-01    0.228E-04
DAV:  25    -0.577983303047E+01   -0.19846E-04   -0.12880E-06  1896   0.436E-03    0.157E-04
DAV:  26    -0.577983796733E+01   -0.49369E-05   -0.23384E-07  1640   0.155E-03    0.650E-05
DAV:  27    -0.577983798934E+01   -0.22013E-07   -0.28722E-08  1392   0.557E-04
   3 F= -.57798380E+01 E0= -.57611150E+01  d E =-.327947E-02  mag=    -0.0000
       N       E                     dE             d eps       ncg     rms          rms(c)
DAV:   1    -0.578014922065E+01   -0.31125E-03   -0.57224E-03  2024   0.573E-01    0.986E-02
DAV:   2    -0.578167086908E+01   -0.15216E-02   -0.13734E-03  2104   0.325E-01    0.418E-02
DAV:   3    -0.578061914112E+01    0.10517E-02   -0.16714E-04  2200   0.114E-01    0.170E-02
DAV:   4    -0.578006184498E+01    0.55730E-03   -0.50332E-05  2080   0.293E-02    0.480E-03
DAV:   5    -0.578001079310E+01    0.51052E-04   -0.14232E-04  1736   0.202E-02    0.359E-03
DAV:   6    -0.577984332941E+01    0.16746E-03   -0.38703E-06  2080   0.846E-03    0.140E-03
DAV:   7    -0.577979318777E+01    0.50142E-04   -0.69091E-06  1488   0.498E-03    0.478E-04
DAV:   8    -0.577977500233E+01    0.18185E-04   -0.58465E-06  1576   0.423E-03    0.186E-04
DAV:   9    -0.577977168704E+01    0.33153E-05   -0.25402E-06  1480   0.315E-03    0.768E-05
DAV:  10    -0.577977330894E+01   -0.16219E-05   -0.90842E-07  1432   0.214E-03    0.398E-05
DAV:  11    -0.577977684228E+01   -0.35333E-05   -0.13511E-06  1384   0.233E-03    0.351E-05
DAV:  12    -0.577977979078E+01   -0.29485E-05   -0.22860E-06  1512   0.211E-03    0.255E-05
DAV:  13    -0.577978329652E+01   -0.35057E-05   -0.41505E-06  1416   0.275E-03    0.183E-05
DAV:  14    -0.577978716438E+01   -0.38679E-05   -0.75123E-06  1416   0.317E-03    0.155E-05
DAV:  15    -0.578014437489E+01   -0.35721E-03   -0.71837E-04  1400   0.251E-03    0.127E-02
DAV:  16    -0.577978764828E+01    0.35673E-03   -0.10998E-01  1408   0.142E-02    0.294E-05
DAV:  17    -0.577990662711E+01   -0.11898E-03   -0.35256E-04  1392   0.250E-03    0.431E-03
DAV:  18    -0.577978992949E+01    0.11670E-03   -0.46905E-02  1432   0.103E-02    0.250E-05
DAV:  19    -0.577979429676E+01   -0.43673E-05   -0.51287E-06  1464   0.202E-03    0.143E-05
DAV:  20    -0.577979375725E+01    0.53951E-06   -0.30735E-06  1440   0.156E-03    0.879E-06
DAV:  21    -0.577980546492E+01   -0.11708E-04   -0.61476E-06  1368   0.132E-03    0.523E-04
DAV:  22    -0.577979267877E+01    0.12786E-04   -0.47787E-03  1520   0.532E-03    0.126E-05
DAV:  23    -0.577981130134E+01   -0.18623E-04   -0.16790E-05  1624   0.330E-03    0.939E-04
DAV:  24    -0.577978757354E+01    0.23728E-04   -0.83411E-03  1504   0.401E-03    0.139E-05
DAV:  25    -0.577978699652E+01    0.57702E-06   -0.38724E-07  1776   0.173E-03    0.850E-06
DAV:  26    -0.577978709846E+01   -0.10194E-06   -0.57899E-08  1424   0.936E-04    0.582E-06
DAV:  27    -0.577978736881E+01   -0.27035E-06   -0.22310E-08  1440   0.571E-04    0.569E-06
DAV:  28    -0.577978765092E+01   -0.28211E-06   -0.33919E-08  1384   0.604E-04    0.534E-06
DAV:  29    -0.577978793376E+01   -0.28284E-06   -0.25946E-08  1352   0.638E-04    0.503E-06
DAV:  30    -0.577978868894E+01   -0.75517E-06   -0.18349E-07  1544   0.859E-04    0.476E-06
DAV:  31    -0.577978889605E+01   -0.20712E-06   -0.32716E-08  1456   0.631E-04    0.452E-06
DAV:  32    -0.577978939089E+01   -0.49483E-06   -0.85207E-08  1424   0.655E-04    0.427E-06
DAV:  33    -0.577978962104E+01   -0.23015E-06   -0.36637E-08  1416   0.623E-04    0.413E-06
DAV:  34    -0.577978961905E+01    0.19882E-08   -0.79382E-09  1328   0.331E-04
   4 F= -.57797896E+01 E0= -.57610207E+01  d E =-.323110E-02  mag=     0.0000
       N       E                     dE             d eps       ncg     rms          rms(c)
DAV:   1    -0.578043363477E+01   -0.64401E-03   -0.88009E-03  1760   0.669E-01    0.101E-01
DAV:   2    -0.578215440686E+01   -0.17208E-02   -0.17046E-03  2192   0.361E-01    0.418E-02
DAV:   3    -0.578107308662E+01    0.10813E-02   -0.16094E-04  2072   0.115E-01    0.143E-02
DAV:   4    -0.578054341784E+01    0.52967E-03   -0.49198E-05  2216   0.310E-02    0.555E-03
DAV:   5    -0.578044483856E+01    0.98579E-04   -0.60299E-06  2192   0.160E-02    0.481E-03
DAV:   6    -0.578031210444E+01    0.13273E-03   -0.27953E-06  1944   0.621E-03    0.226E-03
DAV:   7    -0.578019770238E+01    0.11440E-03   -0.10557E-05  1632   0.547E-03    0.747E-04
DAV:   8    -0.578726188259E+01   -0.70642E-02   -0.20791E-03  1528   0.641E-03    0.120E-01
DAV:   9    -0.578018030780E+01    0.70816E-02   -0.21733E+00  1688   0.155E-01    0.448E-04
DAV:  10    -0.578018467860E+01   -0.43708E-05   -0.31438E-06  1712   0.601E-03    0.261E-04
DAV:  11    -0.578018928185E+01   -0.46032E-05   -0.20593E-06  1456   0.371E-03    0.920E-05
DAV:  12    -0.578804236822E+01   -0.78531E-02   -0.21300E-03  1520   0.275E-03    0.141E-01
DAV:  13    -0.578017014506E+01    0.78722E-02   -0.26024E+00  2056   0.142E-01    0.306E-04
DAV:  14    -0.578017761777E+01   -0.74727E-05   -0.52199E-06  1784   0.643E-03    0.139E-04
DAV:  15    -0.578018638635E+01   -0.87686E-05   -0.40484E-06  1752   0.395E-03    0.918E-05
DAV:  16    -0.578018669735E+01   -0.31100E-06   -0.37712E-06  1656   0.328E-03    0.751E-05
DAV:  17    -0.578018676736E+01   -0.70013E-07   -0.37121E-07  1456   0.162E-03
   5 F= -.57801868E+01 E0= -.57614179E+01  d E =-.397148E-03  mag=    -0.0000
       N       E                     dE             d eps       ncg     rms          rms(c)
DAV:   1    -0.578373035554E+01   -0.35437E-02   -0.78416E-02  1912   0.200E+00    0.304E-01
DAV:   2    -0.578763883309E+01   -0.39085E-02   -0.15055E-02  2016   0.108E+00    0.126E-01
DAV:   3    -0.578403683082E+01    0.36020E-02   -0.14258E-03  2024   0.348E-01    0.433E-02
DAV:   4    -0.578237075104E+01    0.16661E-02   -0.39924E-04  2208   0.910E-02    0.164E-02
DAV:   5    -0.578208242264E+01    0.28833E-03   -0.42749E-05  2176   0.452E-02    0.143E-02
DAV:   6    -0.578168876655E+01    0.39366E-03   -0.34780E-06  2168   0.138E-02    0.682E-03
DAV:   7    -0.578132244835E+01    0.36632E-03   -0.75493E-06  2184   0.947E-03    0.233E-03
DAV:   8    -0.578130292626E+01    0.19522E-04   -0.25773E-06  1896   0.479E-03    0.839E-04
DAV:   9    -0.579593246932E+01   -0.14630E-01   -0.11133E-02  1640   0.413E-03    0.223E-01
DAV:  10    -0.578127375333E+01    0.14659E-01   -0.39561E+00  1776   0.233E-01    0.552E-04
DAV:  11    -0.578128765449E+01   -0.13901E-04   -0.34202E-06  1800   0.818E-03    0.346E-04
DAV:  12    -0.578129622107E+01   -0.85666E-05   -0.29453E-06  1488   0.477E-03    0.116E-04
DAV:  13    -0.578129891935E+01   -0.26983E-05   -0.25458E-06  1568   0.310E-03    0.944E-05
DAV:  14    -0.578130146080E+01   -0.25415E-05   -0.48280E-06  1440   0.474E-03    0.526E-05
DAV:  15    -0.578130086883E+01    0.59198E-06   -0.11023E-05  1536   0.464E-03    0.465E-05
DAV:  16    -0.578130123779E+01   -0.36896E-06   -0.38992E-05  1512   0.523E-03    0.364E-05
DAV:  17    -0.578129235043E+01    0.88874E-05   -0.77184E-07  1416   0.218E-03    0.306E-05
DAV:  18    -0.578129127644E+01    0.10740E-05   -0.62622E-07  1528   0.175E-03    0.290E-05
DAV:  19    -0.578129149036E+01   -0.21392E-06   -0.44682E-07  1392   0.180E-03    0.279E-05
DAV:  20    -0.578129401029E+01   -0.25199E-05   -0.10797E-06  1560   0.190E-03    0.279E-05
DAV:  21    -0.578129423444E+01   -0.22415E-06   -0.23934E-06  1504   0.133E-03    0.271E-05
DAV:  22    -0.578183363886E+01   -0.53940E-03   -0.68837E-04  1376   0.115E-03    0.187E-02
DAV:  23    -0.578129394122E+01    0.53970E-03   -0.25712E-01  1472   0.251E-02    0.524E-05
DAV:  24    -0.578129777800E+01   -0.38368E-05   -0.14461E-06  1432   0.349E-03    0.357E-05
DAV:  25    -0.578129742017E+01    0.35783E-06   -0.14797E-06  1624   0.196E-03    0.323E-05
DAV:  26    -0.578129679258E+01    0.62758E-06   -0.18998E-07  1672   0.114E-03    0.314E-05
DAV:  27    -0.578129677718E+01    0.15406E-07   -0.39774E-08  1376   0.848E-04
   6 F= -.57812968E+01 E0= -.57625518E+01  d E =-.150716E-02  mag=     0.0000
       N       E                     dE             d eps       ncg     rms          rms(c)
DAV:   1    -0.579298672339E+01   -0.11690E-01   -0.31178E-01  1744   0.399E+00    0.608E-01
DAV:   2    -0.579670201716E+01   -0.37153E-02   -0.59514E-02  2104   0.216E+00    0.250E-01
DAV:   3    -0.578867391476E+01    0.80281E-02   -0.56278E-03  1992   0.687E-01    0.871E-02
DAV:   4    -0.578530859567E+01    0.33653E-02   -0.14802E-03  2024   0.178E-01    0.325E-02
DAV:   5    -0.578462473377E+01    0.68386E-03   -0.15881E-04  2272   0.846E-02    0.283E-02
DAV:   6    -0.578376707880E+01    0.85765E-03   -0.13180E-05  2008   0.288E-02    0.120E-02
DAV:   7    -0.578308754329E+01    0.67954E-03   -0.87359E-06  2424   0.125E-02    0.328E-03
DAV:   8    -0.578305966366E+01    0.27880E-04   -0.10490E-06  2128   0.481E-03    0.164E-03
DAV:   9    -0.578304470980E+01    0.14954E-04   -0.98575E-06  1752   0.434E-03    0.405E-04
DAV:  10    -0.578303338831E+01    0.11321E-04   -0.35431E-03  1624   0.582E-03    0.305E-04
DAV:  11    -0.578304146577E+01   -0.80775E-05   -0.25828E-06  1784   0.477E-03    0.249E-04
DAV:  12    -0.578304608358E+01   -0.46178E-05   -0.41502E-06  1872   0.367E-03    0.127E-04
DAV:  13    -0.578304685335E+01   -0.76977E-06   -0.89977E-06  1600   0.659E-03    0.865E-05
DAV:  14    -0.578304376923E+01    0.30841E-05   -0.96306E-06  1632   0.674E-03    0.852E-05
DAV:  15    -0.578304393335E+01   -0.16412E-06   -0.33860E-06  1696   0.502E-03    0.742E-05
DAV:  16    -0.578304440444E+01   -0.47109E-06   -0.20157E-06  1504   0.502E-03    0.667E-05
DAV:  17    -0.578304552481E+01   -0.11204E-05   -0.27465E-06  1488   0.338E-03    0.580E-05
DAV:  18    -0.578304352584E+01    0.19990E-05   -0.23795E-06  1592   0.236E-03    0.586E-05
DAV:  19    -0.578304534396E+01   -0.18181E-05   -0.47827E-06  1440   0.231E-03    0.562E-05
DAV:  20    -0.578304446487E+01    0.87909E-06   -0.12674E-06  1376   0.135E-03    0.587E-05
DAV:  21    -0.578304466936E+01   -0.20449E-06   -0.15894E-07  1368   0.130E-03    0.589E-05
DAV:  22    -0.578304506813E+01   -0.39877E-06   -0.74074E-07  1368   0.151E-03    0.586E-05
DAV:  23    -0.578304905926E+01   -0.39911E-05   -0.25944E-06  1336   0.110E-03    0.286E-04
DAV:  24    -0.578304550727E+01    0.35520E-05   -0.43441E-04  1336   0.177E-03    0.593E-05
DAV:  25    -0.578304574910E+01   -0.24183E-06   -0.47154E-08  1544   0.798E-04    0.599E-05
DAV:  26    -0.578304591848E+01   -0.16938E-06   -0.45708E-08  1328   0.614E-04    0.601E-05
DAV:  27    -0.578304571956E+01    0.19892E-06   -0.43644E-08  1296   0.565E-04    0.599E-05
DAV:  28    -0.578304573055E+01   -0.10989E-07   -0.47573E-10  1688   0.100E-04
   7 F= -.57830457E+01 E0= -.57644091E+01  d E =-.325611E-02  mag=    -0.0000
       N       E                     dE             d eps       ncg     rms          rms(c)
DAV:   1    -0.582476564795E+01   -0.41720E-01   -0.12310E+00  1952   0.794E+00    0.122E+00
DAV:   2    -0.581568557716E+01    0.90801E-02   -0.23441E-01  1984   0.429E+00    0.500E-01
DAV:   3    -0.579625067207E+01    0.19435E-01   -0.22234E-02  1880   0.137E+00    0.178E-01
DAV:   4    -0.578923868292E+01    0.70120E-02   -0.54532E-03  1904   0.349E-01    0.677E-02
DAV:   5    -0.578763727729E+01    0.16014E-02   -0.61733E-04  2200   0.161E-01    0.577E-02
DAV:   6    -0.578638194737E+01    0.12553E-02   -0.32549E-05  2024   0.423E-02    0.326E-02
DAV:   7    -0.578463875959E+01    0.17432E-02   -0.46026E-05  2080   0.380E-02    0.868E-03
DAV:   8    -0.578455169852E+01    0.87061E-04   -0.26448E-05  2136   0.212E-02    0.360E-03
DAV:   9    -0.578448306697E+01    0.68632E-04   -0.44193E-05  1736   0.140E-02    0.102E-03
DAV:  10    -0.578447688671E+01    0.61803E-05   -0.12937E-05  1856   0.106E-02    0.682E-04
DAV:  11    -0.578448281930E+01   -0.59326E-05   -0.11658E-05  1976   0.986E-03    0.429E-04
DAV:  12    -0.578447943159E+01    0.33877E-05   -0.21016E-05  1864   0.117E-02    0.182E-04
DAV:  13    -0.578447726183E+01    0.21698E-05   -0.11804E-05  1608   0.862E-03    0.112E-04
DAV:  14    -0.578448250364E+01   -0.52418E-05   -0.54269E-06  1712   0.776E-03    0.113E-04
DAV:  15    -0.578448473229E+01   -0.22286E-05   -0.24324E-06  1568   0.660E-03    0.914E-05
DAV:  16    -0.578448651257E+01   -0.17803E-05   -0.28825E-06  1920   0.559E-03    0.523E-05
DAV:  17    -0.578449275421E+01   -0.62416E-05   -0.15644E-05  1800   0.778E-03    0.229E-05
DAV:  18    -0.578455274320E+01   -0.59989E-04   -0.11886E-04  1528   0.702E-03    0.249E-03
DAV:  19    -0.578448811855E+01    0.64625E-04   -0.33689E-02  1464   0.102E-02    0.282E-05
DAV:  20    -0.578449966374E+01   -0.11545E-04   -0.30525E-05  1664   0.545E-03    0.391E-04
DAV:  21    -0.579177264702E+01   -0.72730E-02   -0.80818E-04  1504   0.360E-03    0.130E-01
DAV:  22    -0.578444959484E+01    0.73231E-02   -0.26679E+00  2064   0.157E-01    0.561E-04
DAV:  23    -0.578447095687E+01   -0.21362E-04   -0.20409E-06  2064   0.667E-03    0.349E-04
DAV:  24    -0.578445775094E+01    0.13206E-04   -0.74388E-07  1880   0.228E-03    0.243E-04
DAV:  25    -0.578446424448E+01   -0.64935E-05   -0.69304E-07  1832   0.241E-03    0.223E-04
DAV:  26    -0.578446073751E+01    0.35070E-05   -0.26977E-06  1776   0.346E-03    0.205E-04
DAV:  27    -0.578445967199E+01    0.10655E-05   -0.22213E-07  1536   0.165E-03    0.203E-04
DAV:  28    -0.578445984590E+01   -0.17390E-06   -0.31554E-08  1504   0.782E-04    0.203E-04
DAV:  29    -0.578446640670E+01   -0.65608E-05   -0.85725E-07  1448   0.280E-03    0.191E-04
DAV:  30    -0.578447053882E+01   -0.41321E-05   -0.10074E-06  1408   0.229E-03    0.186E-04
DAV:  31    -0.578448280833E+01   -0.12270E-04   -0.40662E-06  1480   0.426E-03    0.173E-04
DAV:  32    -0.578448817180E+01   -0.53635E-05   -0.32432E-07  1688   0.237E-03    0.144E-04
DAV:  33    -0.578449201180E+01   -0.38400E-05   -0.83550E-07  1624   0.253E-03    0.110E-04
DAV:  34    -0.578449254951E+01   -0.53771E-06   -0.37042E-07  1768   0.229E-03    0.911E-05
DAV:  35    -0.578449255643E+01   -0.69285E-08   -0.45176E-07  1624   0.220E-03
   8 F= -.57844926E+01 E0= -.57657183E+01  d E =-.470294E-02  mag=    -0.0001
       N       E                     dE             d eps       ncg     rms          rms(c)
DAV:   1    -0.578965374916E+01   -0.51612E-02   -0.14751E-01  1784   0.276E+00    0.426E-01
DAV:   2    -0.577721601180E+01    0.12438E-01   -0.29655E-02  2136   0.152E+00    0.179E-01
DAV:   3    -0.578075035116E+01   -0.35343E-02   -0.28243E-03  2032   0.494E-01    0.598E-02
DAV:   4    -0.578291655810E+01   -0.21662E-02   -0.80657E-04  2144   0.129E-01    0.246E-02
DAV:   5    -0.578317777241E+01   -0.26121E-03   -0.10035E-04  2256   0.742E-02    0.206E-02
DAV:   6    -0.578380774660E+01   -0.62997E-03   -0.97636E-06  1808   0.241E-02    0.864E-03
DAV:   7    -0.578428567671E+01   -0.47793E-03   -0.63992E-06  2240   0.106E-02    0.281E-03
DAV:   8    -0.578430873422E+01   -0.23058E-04   -0.10392E-06  1912   0.466E-03    0.118E-03
DAV:   9    -0.578432967252E+01   -0.20938E-04   -0.36114E-07  1624   0.250E-03    0.233E-04
DAV:  10    -0.578433237415E+01   -0.27016E-05   -0.78204E-07  1440   0.236E-03    0.232E-04
DAV:  11    -0.578432813911E+01    0.42350E-05   -0.12862E-06  1768   0.241E-03    0.129E-04
DAV:  12    -0.578433264447E+01   -0.45054E-05   -0.24965E-05  1568   0.354E-03    0.612E-05
DAV:  13    -0.578432880724E+01    0.38372E-05   -0.88801E-07  1672   0.239E-03    0.552E-05
DAV:  14    -0.578433302003E+01   -0.42128E-05   -0.11728E-06  1680   0.242E-03    0.289E-05
DAV:  15    -0.578433653119E+01   -0.35112E-05   -0.80149E-07  1640   0.175E-03    0.133E-05
DAV:  16    -0.578434027749E+01   -0.37463E-05   -0.18950E-06  1384   0.214E-03    0.968E-06
DAV:  17    -0.578434239418E+01   -0.21167E-05   -0.36908E-06  1488   0.237E-03    0.924E-06
DAV:  18    -0.579893433067E+01   -0.14592E-01   -0.78430E-03  1416   0.307E-03    0.212E-01
DAV:  19    -0.578431951704E+01    0.14615E-01   -0.39978E+00  1816   0.236E-01    0.458E-04
DAV:  20    -0.578434354027E+01   -0.24023E-04   -0.47614E-06  1840   0.782E-03    0.425E-04
DAV:  21    -0.578435608352E+01   -0.12543E-04   -0.33510E-06  1704   0.386E-03    0.118E-04
DAV:  22    -0.578435685512E+01   -0.77161E-06   -0.41847E-06  1424   0.234E-03    0.905E-05
DAV:  23    -0.578435732296E+01   -0.46784E-06   -0.46657E-07  1360   0.826E-04    0.803E-05
DAV:  24    -0.578435869479E+01   -0.13718E-05   -0.87859E-07  1472   0.106E-03    0.581E-05
DAV:  25    -0.578435902569E+01   -0.33089E-06   -0.37698E-07  1384   0.934E-04    0.406E-05
DAV:  26    -0.578435978747E+01   -0.76178E-06   -0.48243E-07  1360   0.829E-04    0.247E-05
DAV:  27    -0.578436014631E+01   -0.35884E-06   -0.11938E-06  1392   0.720E-04    0.227E-05
DAV:  28    -0.580482994529E+01   -0.20470E-01   -0.19179E-02  1368   0.106E-03    0.261E-01
DAV:  29    -0.578427645674E+01    0.20553E-01   -0.52631E+00  2224   0.252E-01    0.223E-03
DAV:  30    -0.578430201554E+01   -0.25559E-04   -0.45763E-06  2080   0.944E-03    0.919E-04
DAV:  31    -0.578431056546E+01   -0.85499E-05   -0.16743E-06  1968   0.451E-03    0.992E-04
DAV:  32    -0.578430878135E+01    0.17841E-05   -0.29339E-06  1928   0.450E-03    0.133E-03
DAV:  33    -0.578431046123E+01   -0.16799E-05   -0.13580E-06  1624   0.461E-03    0.129E-03
DAV:  34    -0.578431475579E+01   -0.42946E-05   -0.15325E-06  1552   0.475E-03    0.980E-04
DAV:  35    -0.578432351905E+01   -0.87633E-05   -0.47671E-06  1904   0.679E-03    0.160E-04
DAV:  36    -0.578432749175E+01   -0.39727E-05   -0.91254E-06  1584   0.704E-03    0.135E-04
DAV:  37    -0.578433102734E+01   -0.35356E-05   -0.37383E-07  1624   0.289E-03    0.143E-04
DAV:  38    -0.578433443309E+01   -0.34058E-05   -0.75231E-07  1728   0.207E-03    0.129E-04
DAV:  39    -0.578433562644E+01   -0.11934E-05   -0.18283E-07  1720   0.161E-03    0.874E-05
DAV:  40    -0.578433594318E+01   -0.31674E-06   -0.58264E-08  1632   0.886E-04    0.828E-05
DAV:  41    -0.578433691905E+01   -0.97586E-06   -0.11582E-07  1424   0.130E-03    0.850E-05
DAV:  42    -0.578433813545E+01   -0.12164E-05   -0.88373E-08  1672   0.116E-03    0.955E-05
DAV:  43    -0.578433989752E+01   -0.17621E-05   -0.18355E-07  1536   0.151E-03    0.928E-05
DAV:  44    -0.578434070097E+01   -0.80345E-06   -0.40182E-08  1688   0.766E-04    0.917E-05
DAV:  45    -0.578434058658E+01    0.11439E-06   -0.19878E-08  1600   0.633E-04    0.909E-05
DAV:  46    -0.578434046886E+01    0.11771E-06   -0.11221E-08  1576   0.467E-04    0.912E-05
DAV:  47    -0.578434052401E+01   -0.55147E-07   -0.13386E-08  1352   0.510E-04
   9 F= -.57843405E+01 E0= -.57657306E+01  d E =-.455090E-02  mag=    -0.0001
       N       E                     dE             d eps       ncg     rms          rms(c)
DAV:   1    -0.578436920964E+01   -0.28741E-04   -0.81944E-04  1736   0.206E-01    0.316E-02
DAV:   2    -0.578496949677E+01   -0.60029E-03   -0.16379E-04  1800   0.113E-01    0.132E-02
DAV:   3    -0.578463571739E+01    0.33378E-03   -0.15379E-05  2024   0.370E-02    0.447E-03
DAV:   4    -0.578446393082E+01    0.17179E-03   -0.43775E-06  1928   0.979E-03    0.177E-03
DAV:   5    -0.578444110996E+01    0.22821E-04   -0.67409E-07  2160   0.576E-03    0.146E-03
DAV:   6    -0.578438984105E+01    0.51269E-04   -0.48180E-07  1624   0.351E-03    0.535E-04
DAV:   7    -0.578435981431E+01    0.30027E-04   -0.80523E-07  1688   0.238E-03    0.177E-04
DAV:   8    -0.578435895346E+01    0.86085E-06   -0.44377E-07  1640   0.234E-03    0.969E-05
DAV:   9    -0.578435868258E+01    0.27087E-06   -0.65235E-07  1800   0.248E-03    0.292E-05
DAV:  10    -0.578435897575E+01   -0.29317E-06   -0.25423E-07  1848   0.161E-03    0.219E-05
DAV:  11    -0.578436018371E+01   -0.12080E-05   -0.41034E-07  1784   0.198E-03    0.169E-05
DAV:  12    -0.578436406401E+01   -0.38803E-05   -0.29962E-06  1888   0.356E-03    0.102E-05
DAV:  13    -0.578436511755E+01   -0.10535E-05   -0.28856E-07  1816   0.121E-03    0.760E-06
DAV:  14    -0.578436503074E+01    0.86805E-07   -0.29464E-08  1384   0.699E-04
  10 F= -.57843650E+01 E0= -.57657481E+01  d E =-.457541E-02  mag=    -0.0000
       N       E                     dE             d eps       ncg     rms          rms(c)
DAV:   1    -0.578436456892E+01    0.54863E-06   -0.23359E-07  1504   0.309E-03    0.386E-04
DAV:   2    -0.578437327632E+01   -0.87074E-05   -0.48876E-07  1424   0.248E-03    0.138E-04
DAV:   3    -0.578437119800E+01    0.20783E-05   -0.87728E-07  1512   0.166E-03    0.582E-05
DAV:   4    -0.578437150578E+01   -0.30779E-06   -0.54236E-06  1584   0.382E-03    0.277E-05
DAV:   5    -0.578437256713E+01   -0.10613E-05   -0.17383E-05  1520   0.505E-03    0.262E-05
DAV:   6    -0.578437417697E+01   -0.16098E-05   -0.12550E-05  1472   0.393E-03    0.149E-05
DAV:   7    -0.578437505503E+01   -0.87806E-06   -0.63184E-07  1376   0.131E-03    0.113E-05
DAV:   8    -0.578437702845E+01   -0.19734E-05   -0.22941E-06  1368   0.162E-03    0.238E-05
DAV:   9    -0.578437349815E+01    0.35303E-05   -0.56560E-05  1440   0.254E-03    0.686E-06
DAV:  10    -0.578437373902E+01   -0.24088E-06   -0.29813E-06  1456   0.196E-03    0.683E-06
DAV:  11    -0.578437226724E+01    0.14718E-05   -0.40793E-06  1392   0.218E-03    0.474E-06
DAV:  12    -0.578437162241E+01    0.64482E-06   -0.19169E-06  1344   0.108E-03    0.899E-06
DAV:  13    -0.578437089252E+01    0.72989E-06   -0.31974E-05  1384   0.238E-03    0.305E-06
DAV:  14    -0.578437047382E+01    0.41871E-06   -0.20476E-07  1344   0.796E-04    0.315E-06
DAV:  15    -0.578437034883E+01    0.12499E-06   -0.14333E-07  1328   0.751E-04    0.329E-06
DAV:  16    -0.578436985832E+01    0.49051E-06   -0.11769E-07  1336   0.830E-04    0.262E-06
DAV:  17    -0.578436968324E+01    0.17508E-06   -0.28934E-08  1384   0.559E-04    0.264E-06
DAV:  18    -0.578436963894E+01    0.44299E-07   -0.22343E-08  1296   0.445E-04
  11 F= -.57843696E+01 E0= -.57657526E+01  d E =-.458002E-02  mag=    -0.0000
       N       E                     dE             d eps       ncg     rms          rms(c)
DAV:   1    -0.578538650874E+01   -0.10168E-02   -0.32101E-02  1752   0.128E+00    0.196E-01
DAV:   2    -0.578836099553E+01   -0.29745E-02   -0.63035E-03  2208   0.693E-01    0.805E-02
DAV:   3    -0.578617719191E+01    0.21838E-02   -0.58868E-04  1944   0.223E-01    0.276E-02
DAV:   4    -0.578515557574E+01    0.10216E-02   -0.16554E-04  2328   0.586E-02    0.105E-02
DAV:   5    -0.578496892350E+01    0.18665E-03   -0.18112E-05  2240   0.291E-02    0.917E-03
DAV:   6    -0.578470134763E+01    0.26758E-03   -0.36747E-06  2200   0.104E-02    0.383E-03
DAV:   7    -0.586428063964E+01   -0.79579E-01   -0.13262E-01  1872   0.660E-03    0.582E-01
DAV:   8    -0.578443388094E+01    0.79847E-01   -0.13817E+01  1896   0.782E-01    0.183E-03
DAV:   9    -0.578446223529E+01   -0.28354E-04   -0.68214E-06  2088   0.213E-02    0.116E-03
DAV:  10    -0.578449023328E+01   -0.27998E-04   -0.37829E-06  1816   0.686E-03    0.396E-04
DAV:  11    -0.578448236636E+01    0.78669E-05   -0.30196E-06  1752   0.428E-03    0.274E-04
DAV:  12    -0.578446691180E+01    0.15455E-04   -0.56130E-06  1480   0.435E-03    0.728E-05
DAV:  13    -0.578446286391E+01    0.40479E-05   -0.31973E-07  1864   0.184E-03    0.480E-05
DAV:  14    -0.578445711559E+01    0.57483E-05   -0.74268E-07  1376   0.223E-03    0.342E-05
DAV:  15    -0.578445196201E+01    0.51536E-05   -0.92180E-07  1408   0.267E-03    0.300E-05
DAV:  16    -0.578444941262E+01    0.25494E-05   -0.15195E-06  1576   0.277E-03    0.279E-05
DAV:  17    -0.578444750147E+01    0.19111E-05   -0.32257E-06  1520   0.358E-03    0.233E-05
DAV:  18    -0.578444656110E+01    0.94037E-06   -0.91471E-07  1584   0.215E-03    0.191E-05
DAV:  19    -0.578444660962E+01   -0.48516E-07   -0.60310E-08  1696   0.974E-04
  12 F= -.57844466E+01 E0= -.57657683E+01  d E =-.465699E-02  mag=    -0.0000
       N       E                     dE             d eps       ncg     rms          rms(c)
DAV:   1    -0.578554578439E+01   -0.10992E-02   -0.31579E-02  1800   0.127E+00    0.196E-01
DAV:   2    -0.578085296480E+01    0.46928E-02   -0.62775E-03  1832   0.695E-01    0.814E-02
DAV:   3    -0.578268619477E+01   -0.18332E-02   -0.59117E-04  2144   0.227E-01    0.275E-02
DAV:   4    -0.578369251395E+01   -0.10063E-02   -0.18171E-04  2184   0.603E-02    0.111E-02
DAV:   5    -0.578382404252E+01   -0.13153E-03   -0.22779E-05  2232   0.339E-02    0.933E-03
DAV:   6    -0.578411134457E+01   -0.28730E-03   -0.30560E-06  1736   0.112E-02    0.384E-03
DAV:   7    -0.578432101453E+01   -0.20967E-03   -0.19712E-06  1984   0.608E-03    0.122E-03
DAV:   8    -0.578433301412E+01   -0.12000E-04   -0.45278E-07  1480   0.259E-03    0.514E-04
DAV:   9    -0.578434299405E+01   -0.99799E-05   -0.94735E-07  1576   0.207E-03    0.933E-05
DAV:  10    -0.578434642962E+01   -0.34356E-05   -0.28068E-06  1632   0.332E-03    0.102E-04
DAV:  11    -0.578434691343E+01   -0.48381E-06   -0.78031E-06  1824   0.469E-03    0.361E-05
DAV:  12    -0.578435006227E+01   -0.31488E-05   -0.93354E-06  1816   0.473E-03    0.328E-05
DAV:  13    -0.578435416192E+01   -0.40997E-05   -0.24091E-06  1456   0.286E-03    0.249E-05
DAV:  14    -0.578435941897E+01   -0.52570E-05   -0.61662E-07  1528   0.193E-03    0.151E-05
DAV:  15    -0.578436258070E+01   -0.31617E-05   -0.38387E-07  1368   0.146E-03    0.994E-06
DAV:  16    -0.578436614405E+01   -0.35634E-05   -0.15814E-06  1392   0.170E-03    0.802E-06
DAV:  17    -0.578436731540E+01   -0.11713E-05   -0.23223E-06  1384   0.193E-03    0.649E-06
DAV:  18    -0.578437021056E+01   -0.28952E-05   -0.51223E-06  1408   0.253E-03    0.701E-06
DAV:  19    -0.578437288865E+01   -0.26781E-05   -0.43094E-06  1384   0.218E-03    0.375E-06
DAV:  20    -0.578564411017E+01   -0.12712E-02   -0.56833E-04  1384   0.197E-03    0.361E-02
DAV:  21    -0.578436506729E+01    0.12790E-02   -0.48589E-01  1416   0.382E-02    0.777E-05
DAV:  22    -0.578437469291E+01   -0.96256E-05   -0.82464E-06  1440   0.375E-03    0.795E-05
DAV:  23    -0.578438129201E+01   -0.65991E-05   -0.56815E-06  1464   0.365E-03    0.456E-05
DAV:  24    -0.578437634162E+01    0.49504E-05   -0.19200E-04  1504   0.420E-03    0.170E-05
DAV:  25    -0.578437905480E+01   -0.27132E-05   -0.23782E-06  1392   0.220E-03    0.161E-05
DAV:  26    -0.578565134051E+01   -0.12723E-02   -0.56580E-04  1368   0.146E-03    0.393E-02
DAV:  27    -0.578436283777E+01    0.12885E-02   -0.74338E-01  1488   0.451E-02    0.169E-04
DAV:  28    -0.578436887725E+01   -0.60395E-05   -0.11405E-06  1816   0.339E-03    0.121E-04
DAV:  29    -0.578436016646E+01    0.87108E-05   -0.47742E-07  1552   0.227E-03    0.102E-04
DAV:  30    -0.578435545364E+01    0.47128E-05   -0.33240E-07  1536   0.185E-03    0.943E-05
DAV:  31    -0.578435061827E+01    0.48354E-05   -0.19544E-07  1528   0.181E-03    0.818E-05
DAV:  32    -0.578434388681E+01    0.67315E-05   -0.42277E-07  1408   0.245E-03    0.693E-05
DAV:  33    -0.578434363593E+01    0.25087E-06   -0.33169E-07  1680   0.144E-03    0.628E-05
DAV:  34    -0.578434380947E+01   -0.17354E-06   -0.10037E-07  1448   0.118E-03    0.590E-05
DAV:  35    -0.578434538413E+01   -0.15747E-05   -0.28360E-07  1440   0.166E-03    0.574E-05
DAV:  36    -0.578434606618E+01   -0.68205E-06   -0.10650E-07  1560   0.995E-04    0.560E-05
DAV:  37    -0.578434655299E+01   -0.48681E-06   -0.11542E-07  1344   0.130E-03    0.553E-05
DAV:  38    -0.578435010341E+01   -0.35504E-05   -0.10752E-06  1384   0.247E-03    0.522E-05
DAV:  39    -0.578447681051E+01   -0.12671E-03   -0.17440E-04  1448   0.325E-03    0.493E-03
DAV:  40    -0.578436090135E+01    0.11591E-03   -0.25466E-02  1400   0.587E-03    0.533E-05
DAV:  41    -0.578436368171E+01   -0.27804E-05   -0.34072E-06  1648   0.216E-03    0.458E-05
DAV:  42    -0.578436432986E+01   -0.64815E-06   -0.15256E-07  1624   0.903E-04    0.421E-05
DAV:  43    -0.578436453308E+01   -0.20322E-06   -0.27747E-08  1504   0.735E-04    0.414E-05
DAV:  44    -0.578436456113E+01   -0.28055E-07   -0.95092E-09  1408   0.440E-04
  13 F= -.57843646E+01 E0= -.57657475E+01  d E =-.457494E-02  mag=    -0.0000
       N       E                     dE             d eps       ncg     rms          rms(c)
DAV:   1    -0.578436473019E+01   -0.19711E-06   -0.82592E-08  1320   0.199E-03    0.246E-04
DAV:   2    -0.578434587536E+01    0.18855E-04   -0.48637E-07  1672   0.253E-03    0.877E-05
DAV:   3    -0.578434840688E+01   -0.25315E-05   -0.61053E-07  1488   0.267E-03    0.416E-05
DAV:   4    -0.578435391493E+01   -0.55081E-05   -0.12929E-06  1880   0.324E-03    0.181E-05
DAV:   5    -0.578435945840E+01   -0.55435E-05   -0.17133E-06  1688   0.331E-03    0.128E-05
DAV:   6    -0.578436314178E+01   -0.36834E-05   -0.22164E-06  1520   0.314E-03    0.105E-05
DAV:   7    -0.578436458739E+01   -0.14456E-05   -0.54989E-07  1392   0.180E-03    0.104E-05
DAV:   8    -0.578435993522E+01    0.46522E-05   -0.99440E-06  1400   0.375E-03    0.143E-05
DAV:   9    -0.578435946364E+01    0.47158E-06   -0.10208E-06  1616   0.266E-03    0.109E-05
DAV:  10    -0.578435823229E+01    0.12313E-05   -0.30446E-07  1432   0.202E-03    0.124E-05
DAV:  11    -0.578435847465E+01   -0.24236E-06   -0.39571E-08  1576   0.812E-04    0.126E-05
DAV:  12    -0.578436131471E+01   -0.28401E-05   -0.66920E-07  1392   0.276E-03    0.106E-05
DAV:  13    -0.578437157019E+01   -0.10255E-04   -0.49370E-06  1728   0.447E-03    0.108E-05
DAV:  14    -0.578443922967E+01   -0.67659E-04   -0.13869E-04  1472   0.502E-03    0.271E-03
DAV:  15    -0.578437259276E+01    0.66637E-04   -0.31138E-02  1712   0.689E-03    0.230E-05
DAV:  16    -0.578437258500E+01    0.77641E-08   -0.28513E-06  1416   0.232E-03    0.199E-05
DAV:  17    -0.578437113065E+01    0.14544E-05   -0.24684E-06  1392   0.207E-03    0.106E-05
DAV:  18    -0.578499529064E+01   -0.62416E-03   -0.44353E-04  1592   0.349E-03    0.202E-02
DAV:  19    -0.578435100537E+01    0.64429E-03   -0.34860E-01  1568   0.306E-02    0.542E-05
DAV:  20    -0.578436305984E+01   -0.12054E-04   -0.38081E-06  1912   0.486E-03    0.371E-05
DAV:  21    -0.578437096721E+01   -0.79074E-05   -0.31525E-06  1808   0.370E-03    0.207E-05
DAV:  22    -0.578436762490E+01    0.33423E-05   -0.25686E-06  1624   0.268E-03    0.174E-05
DAV:  23    -0.578436884741E+01   -0.12225E-05   -0.32119E-06  1512   0.243E-03    0.131E-05
DAV:  24    -0.578436858792E+01    0.25949E-06   -0.92095E-08  1720   0.920E-04    0.114E-05
DAV:  25    -0.578436808188E+01    0.50604E-06   -0.73729E-08  1608   0.840E-04    0.104E-05
DAV:  26    -0.578436740016E+01    0.68172E-06   -0.57502E-08  1376   0.866E-04    0.904E-06
DAV:  27    -0.578436705655E+01    0.34361E-06   -0.37379E-08  1464   0.721E-04    0.820E-06
DAV:  28    -0.578436663984E+01    0.41671E-06   -0.60204E-08  1552   0.709E-04    0.768E-06
DAV:  29    -0.578436655307E+01    0.86775E-07   -0.17697E-08  1576   0.523E-04
  14 F= -.57843666E+01 E0= -.57657495E+01  d E =-.457693E-02  mag=    -0.0000
       N       E                     dE             d eps       ncg     rms          rms(c)
DAV:   1    -0.578439110530E+01   -0.24465E-04   -0.69947E-04  1832   0.201E-01    0.347E-02
DAV:   2    -0.578496272867E+01   -0.57162E-03   -0.17320E-04  1864   0.115E-01    0.148E-02
DAV:   3    -0.578461304273E+01    0.34969E-03   -0.25843E-05  2048   0.414E-02    0.591E-03
DAV:   4    -0.578498475799E+01   -0.37172E-03   -0.42080E-04  1728   0.118E-02    0.197E-02
DAV:   5    -0.578441530432E+01    0.56945E-03   -0.36570E-01  1784   0.254E-02    0.177E-03
DAV:   6    -0.578441223718E+01    0.30671E-05   -0.60856E-06  1888   0.785E-03    0.122E-03
DAV:   7    -0.578434664019E+01    0.65597E-04   -0.99059E-06  1848   0.621E-03    0.339E-04
DAV:   8    -0.578433670122E+01    0.99390E-05   -0.82725E-06  1520   0.487E-03    0.193E-04
DAV:   9    -0.578433634945E+01    0.35177E-06   -0.47099E-06  1512   0.380E-03    0.902E-05
DAV:  10    -0.578433591713E+01    0.43232E-06   -0.46559E-06  1504   0.381E-03    0.435E-05
DAV:  11    -0.578433500953E+01    0.90760E-06   -0.86819E-07  1488   0.184E-03    0.314E-05
DAV:  12    -0.578433608343E+01   -0.10739E-05   -0.10887E-07  1552   0.894E-04    0.300E-05
DAV:  13    -0.578433928586E+01   -0.32024E-05   -0.74766E-07  1680   0.126E-03    0.269E-05
DAV:  14    -0.578434242679E+01   -0.31409E-05   -0.10378E-06  1392   0.162E-03    0.273E-05
DAV:  15    -0.578434476399E+01   -0.23372E-05   -0.11958E-06  1504   0.114E-03    0.252E-05
DAV:  16    -0.578442979483E+01   -0.85031E-04   -0.14672E-04  1416   0.212E-03    0.369E-03
DAV:  17    -0.578435080510E+01    0.78990E-04   -0.18752E-02  1496   0.376E-03    0.286E-05
DAV:  18    -0.578500670241E+01   -0.65590E-03   -0.43941E-04  1448   0.952E-04    0.226E-02
DAV:  19    -0.578431174948E+01    0.69495E-03   -0.43095E-01  1680   0.262E-02    0.221E-04
DAV:  20    -0.578432959876E+01   -0.17849E-04   -0.12443E-06  1712   0.273E-03    0.896E-05
DAV:  21    -0.578433259203E+01   -0.29933E-05   -0.15430E-07  1664   0.138E-03    0.704E-05
DAV:  22    -0.578433470508E+01   -0.21130E-05   -0.25658E-07  1784   0.149E-03    0.541E-05
DAV:  23    -0.578433667595E+01   -0.19709E-05   -0.84052E-07  1904   0.256E-03    0.377E-05
DAV:  24    -0.578433851315E+01   -0.18372E-05   -0.67595E-07  1976   0.228E-03    0.305E-05
DAV:  25    -0.578434129974E+01   -0.27866E-05   -0.10471E-06  1696   0.261E-03    0.275E-05
DAV:  26    -0.578434699808E+01   -0.56983E-05   -0.28370E-06  1952   0.326E-03    0.251E-05
DAV:  27    -0.578435099004E+01   -0.39920E-05   -0.22776E-06  1448   0.249E-03    0.263E-05
DAV:  28    -0.578435230040E+01   -0.13104E-05   -0.70072E-07  1480   0.120E-03    0.263E-05
DAV:  29    -0.578435309478E+01   -0.79437E-06   -0.73410E-08  1600   0.647E-04    0.255E-05
DAV:  30    -0.578435345630E+01   -0.36152E-06   -0.12111E-07  1336   0.739E-04    0.253E-05
DAV:  31    -0.578435351635E+01   -0.60056E-07   -0.38863E-08  1544   0.482E-04
  15 F= -.57843535E+01 E0= -.57657172E+01  d E =0.130367E-04  mag=    -0.0000
       N       E                     dE             d eps       ncg     rms          rms(c)
DAV:   1    -0.578438259226E+01   -0.29136E-04   -0.53457E-04  2000   0.176E-01    0.304E-02
DAV:   2    -0.578381809761E+01    0.56449E-03   -0.13234E-04  2224   0.100E-01    0.129E-02
DAV:   3    -0.578413289603E+01   -0.31480E-03   -0.16863E-05  2096   0.355E-02    0.517E-03
DAV:   4    -0.578430504377E+01   -0.17215E-03   -0.37730E-06  2032   0.898E-03    0.143E-03
DAV:   5    -0.578431858263E+01   -0.13539E-04   -0.59640E-07  1776   0.549E-03    0.108E-03
DAV:   6    -0.578436329277E+01   -0.44710E-04   -0.33616E-07  1680   0.223E-03    0.410E-04
DAV:   7    -0.578438439814E+01   -0.21105E-04   -0.60927E-07  1648   0.156E-03    0.189E-04
DAV:   8    -0.578438466160E+01   -0.26346E-06   -0.46078E-07  1616   0.135E-03    0.863E-05
DAV:   9    -0.578438483489E+01   -0.17329E-06   -0.38317E-07  1696   0.952E-04    0.246E-05
DAV:  10    -0.578438384458E+01    0.99031E-06   -0.30733E-07  1552   0.101E-03    0.202E-05
DAV:  11    -0.578438213763E+01    0.17070E-05   -0.12058E-06  1544   0.141E-03    0.122E-05
DAV:  12    -0.578438058418E+01    0.15534E-05   -0.31034E-06  1632   0.240E-03    0.848E-06
DAV:  13    -0.578438027389E+01    0.31029E-06   -0.24362E-06  1408   0.206E-03    0.672E-06
DAV:  14    -0.578437954883E+01    0.72506E-06   -0.28957E-06  1392   0.188E-03    0.658E-06
DAV:  15    -0.578437878356E+01    0.76528E-06   -0.17519E-06  1368   0.135E-03    0.726E-06
DAV:  16    -0.578438497612E+01   -0.61926E-05   -0.13861E-05  1512   0.627E-04    0.363E-04
DAV:  17    -0.578437507136E+01    0.99048E-05   -0.44238E-04  1384   0.257E-03    0.186E-05
DAV:  18    -0.578437156095E+01    0.35104E-05   -0.13778E-04  1440   0.404E-03    0.119E-05
DAV:  19    -0.578437174451E+01   -0.18356E-06   -0.67045E-06  1504   0.255E-03    0.640E-06
DAV:  20    -0.581547828854E+01   -0.31107E-01   -0.38801E-02  1376   0.194E-03    0.346E-01
DAV:  21    -0.578431811687E+01    0.31160E-01   -0.69806E+00  2152   0.395E-01    0.866E-04
DAV:  22    -0.578434656080E+01   -0.28444E-04   -0.26772E-06  2184   0.118E-02    0.564E-04
DAV:  23    -0.578435120810E+01   -0.46473E-05   -0.37180E-06  1760   0.572E-03    0.216E-04
DAV:  24    -0.578435487224E+01   -0.36641E-05   -0.52650E-07  1592   0.313E-03    0.170E-04
DAV:  25    -0.578436313486E+01   -0.82626E-05   -0.10742E-05  1888   0.614E-03    0.122E-04
DAV:  26    -0.578436214443E+01    0.99043E-06   -0.20479E-05  1624   0.764E-03    0.789E-05
DAV:  27    -0.578436227274E+01   -0.12830E-06   -0.32021E-07  1712   0.179E-03    0.722E-05
DAV:  28    -0.578436227222E+01    0.51932E-09   -0.28839E-08  1728   0.793E-04
  16 F= -.57843623E+01 E0= -.57657429E+01  d E =0.428085E-05  mag=    -0.0000
