 vasp.5.4.1 24Jun15 (build Dec 08 2016 12:24:04) complex                        
  
 executed on           IFC91_ompi date 2019.07.29  12:55:10
 running on   32 total cores
 distrk:  each k-point on   32 cores,    1 groups
 distr:  one band on NCORES_PER_BAND=   4 cores,    8 groups


--------------------------------------------------------------------------------------------------------


 INCAR:
 POTCAR:    PAW_PBE Bi 08Apr2002                  
 POTCAR:    PAW_PBE Pt 04Feb2005                  

 ----------------------------------------------------------------------------- 
|                                                                             |
|  ADVICE TO THIS USER RUNNING 'VASP/VAMP'   (HEAR YOUR MASTER'S VOICE ...):  |
|                                                                             |
|      You have switched on vdW-DFT.                                          |
|      This routine was written and supplied by Jiri Klimes.                  |
|      We recommed that you carefully read and cite the following             |
|      publication                                                            |
|      J. Klimes, D.R. Bowler, A. Michelides                                  |
|        J. Phys.: Cond Matt. 22 022201 (2010)                                |
|      J. Klimes, D.R. Bowler, A. Michelides                                  |
|        Phys. Rev. B. 83, 195131 (2011)                                      |
|      and references therein.                                                |
|                                                                             |
 ----------------------------------------------------------------------------- 

 POTCAR:    PAW_PBE Bi 08Apr2002                  
   VRHFIN =Bi:                                                                  
   LEXCH  = PE                                                                  
   EATOM  =   150.8133 eV,   11.0845 Ry                                         
                                                                                
   TITEL  = PAW_PBE Bi 08Apr2002                                                
   LULTRA =        F    use ultrasoft PP ?                                      
   IUNSCR =        1    unscreen: 0-lin 1-nonlin 2-no                           
   RPACOR =    2.200    partial core radius                                     
   POMASS =  208.980; ZVAL   =    5.000    mass and valenz                      
   RCORE  =    3.000    outmost cutoff radius                                   
   RWIGS  =    3.090; RWIGS  =    1.635    wigner-seitz radius (au A)           
   ENMAX  =  105.037; ENMIN  =   78.777 eV                                      
   ICORE  =        3    local potential                                         
   LCOR   =        T    correct aug charges                                     
   LPAW   =        T    paw PP                                                  
   EAUG   =  265.427                                                            
   DEXC   =    0.000                                                            
   RMAX   =    3.067    core radius for proj-oper                               
   RAUG   =    1.300    factor for augmentation sphere                          
   RDEP   =    3.012    radius for radial grids                                 
   RDEPT  =    2.604    core radius for aug-charge                              
                                                                                
   Atomic configuration                                                         
   17 entries                                                                   
     n  l   j            E        occ.                                          
     1  0  0.50    -90639.6582   2.0000                                         
     2  0  0.50    -16282.4667   2.0000                                         
     2  1  1.50    -13922.8287   6.0000                                         
     3  0  0.50     -3930.4763   2.0000                                         
     3  1  1.50     -3256.7013   6.0000                                         
     3  2  2.50     -2581.6169  10.0000                                         
     4  0  0.50      -902.2614   2.0000                                         
     4  1  1.50      -681.5915   6.0000                                         
     4  2  2.50      -429.8249  10.0000                                         
     4  3  3.50      -152.6004  14.0000                                         
     5  0  0.50      -157.7156   2.0000                                         
     5  1  1.50       -95.8054   6.0000                                         
     5  2  2.50       -27.0806  10.0000                                         
     6  0  0.50       -14.4732   2.0000                                         
     6  1  1.50        -4.5702   3.0000                                         
     6  2  2.50        -2.7212   0.0000                                         
     5  3  2.50        -2.7212   0.0000                                         
   Description                                                                  
     l       E           TYP  RCUT    TYP  RCUT                                 
     0    -14.4732299     23  3.000                                             
     0    -12.2452434     23  3.000                                             
     1     -4.5701666     23  3.000                                             
     1    -13.6058260     23  3.000                                             
     2     -2.7211652     23  3.000                                             
     3     -1.3605826      7  3.000                                             
  local pseudopotential read in
  partial core-charges read in
  partial kinetic energy density read in
  kinetic energy density of atom read in
  atomic valenz-charges read in
  non local Contribution for L=           0  read in
    real space projection operators read in
  non local Contribution for L=           0  read in
    real space projection operators read in
  non local Contribution for L=           1  read in
    real space projection operators read in
  non local Contribution for L=           1  read in
    real space projection operators read in
  non local Contribution for L=           2  read in
    real space projection operators read in
    PAW grid and wavefunctions read in
 
   number of l-projection  operators is LMAX  =           5
   number of lm-projection operators is LMMAX =          13
 
 POTCAR:    PAW_PBE Pt 04Feb2005                  
   VRHFIN =Pt: s1d9                                                             
   LEXCH  = PE                                                                  
   EATOM  =   729.1176 eV,   53.5886 Ry                                         
                                                                                
   TITEL  = PAW_PBE Pt 04Feb2005                                                
   LULTRA =        F    use ultrasoft PP ?                                      
   IUNSCR =        1    unscreen: 0-lin 1-nonlin 2-no                           
   RPACOR =    2.330    partial core radius                                     
   POMASS =  195.080; ZVAL   =   10.000    mass and valenz                      
   RCORE  =    2.600    outmost cutoff radius                                   
   RWIGS  =    2.750; RWIGS  =    1.455    wigner-seitz radius (au A)           
   ENMAX  =  230.283; ENMIN  =  172.712 eV                                      
   ICORE  =        3    local potential                                         
   LCOR   =        T    correct aug charges                                     
   LPAW   =        T    paw PP                                                  
   EAUG   =  358.966                                                            
   DEXC   =    0.000                                                            
   RMAX   =    2.658    core radius for proj-oper                               
   RAUG   =    1.300    factor for augmentation sphere                          
   RDEP   =    2.761    radius for radial grids                                 
   RDEPT  =    2.203    core radius for aug-charge                              
                                                                                
   Atomic configuration                                                         
   16 entries                                                                   
     n  l   j            E        occ.                                          
     1  0  0.50    -78401.1885   2.0000                                         
     2  0  0.50    -13770.7750   2.0000                                         
     2  1  1.50    -11931.0468   6.0000                                         
     3  0  0.50     -3234.7234   2.0000                                         
     3  1  1.50     -2699.2216   6.0000                                         
     3  2  2.50     -2119.5714  10.0000                                         
     4  0  0.50      -695.1528   2.0000                                         
     4  1  1.50      -519.6034   6.0000                                         
     4  2  2.50      -306.6786  10.0000                                         
     4  3  3.50       -70.1041  14.0000                                         
     5  0  0.50      -101.7747   2.0000                                         
     5  1  1.50       -55.9873   6.0000                                         
     5  2  2.50        -6.1423   9.0000                                         
     6  0  0.50        -5.6573   1.0000                                         
     6  1  1.50        -6.8029   0.0000                                         
     5  3  2.50        -1.3606   0.0000                                         
   Description                                                                  
     l       E           TYP  RCUT    TYP  RCUT                                 
     2     -6.1423404     23  2.500                                             
     2     -7.5029230     23  2.500                                             
     0     -5.6573207     23  2.500                                             
     0      0.7416693     23  2.500                                             
     1     -2.7211652     23  2.600                                             
     1     20.4087390     23  2.600                                             
     3     -1.3605826     23  2.500                                             
  local pseudopotential read in
  partial core-charges read in
  partial kinetic energy density read in
  atomic valenz-charges read in
  non local Contribution for L=           2  read in
    real space projection operators read in
  non local Contribution for L=           2  read in
    real space projection operators read in
  non local Contribution for L=           0  read in
    real space projection operators read in
  non local Contribution for L=           0  read in
    real space projection operators read in
  non local Contribution for L=           1  read in
    real space projection operators read in
  non local Contribution for L=           1  read in
    real space projection operators read in
    PAW grid and wavefunctions read in
 
   number of l-projection  operators is LMAX  =           6
   number of lm-projection operators is LMMAX =          18
 

 ----------------------------------------------------------------------------- 
|                                                                             |
|  ADVICE TO THIS USER RUNNING 'VASP/VAMP'   (HEAR YOUR MASTER'S VOICE ...):  |
|                                                                             |
|      You enforced a specific xc-type in the INCAR file,                     |
|      a different type was found on the POTCAR file                          |
|          I HOPE YOU KNOW, WHAT YOU ARE  DOING                               |
|                                                                             |
 ----------------------------------------------------------------------------- 

  PAW_PBE Bi 08Apr2002                  :
 energy of atom  1       EATOM= -150.8133
 kinetic energy error for atom=    0.0001 (will be added to EATOM!!)
  PAW_PBE Pt 04Feb2005                  :
 energy of atom  2       EATOM= -729.1176
 kinetic energy error for atom=    0.0039 (will be added to EATOM!!)
 
 
 POSCAR: Surf-mp-569581                          
  positions in direct lattice
  No initial velocities read in
 exchange correlation table for  LEXCH =       42
   RHO(1)=    0.500       N(1)  =     2000
   RHO(2)=  100.500       N(2)  =     4000
 


--------------------------------------------------------------------------------------------------------


 ion  position               nearest neighbor table
   1  0.333  0.667  0.125-   3 2.80   3 2.80   3 2.80   2 3.73   2 3.73   2 3.73
   2  0.667  0.333  0.000-   3 2.80   3 2.80   3 2.80   1 3.73   1 3.73   1 3.73
   3  0.000  0.000  0.063-   1 2.80   2 2.80   1 2.80   2 2.80   1 2.80   2 2.80
 
  LATTYP: Found a hexagonal cell.
 ALAT       =     4.1598985671
 C/A-ratio  =     5.4953332710
  
  Lattice vectors:
  
 A1 = (   3.6025780000,  -2.0799490000,   0.0000000000)
 A2 = (   0.0000000000,   4.1598980000,   0.0000000000)
 A3 = (   0.0000000000,   0.0000000000,  22.8600290000)


Analysis of symmetry for initial positions (statically):
=====================================================================
 Subroutine PRICEL returns:
 Original cell was already a primitive cell.
 

 Routine SETGRP: Setting up the symmetry group for a 
 hexagonal supercell.


 Subroutine GETGRP returns: Found 12 space group operations
 (whereof  6 operations were pure point group operations)
 out of a pool of 24 trial point group operations.


The static configuration has the point symmetry C_3v.
 The point group associated with its full space group is D_3d.


Analysis of symmetry for dynamics (positions and initial velocities):
=====================================================================
 Subroutine PRICEL returns:
 Original cell was already a primitive cell.
 

 Routine SETGRP: Setting up the symmetry group for a 
 hexagonal supercell.


 Subroutine GETGRP returns: Found 12 space group operations
 (whereof  6 operations were pure point group operations)
 out of a pool of 24 trial point group operations.


The dynamic configuration has the point symmetry C_3v.
 The point group associated with its full space group is D_3d.


Analysis of magnetic symmetry:
=====================================================================
 Subroutine PRICEL returns:
 Original cell was already a primitive cell.
 

 Subroutine MAGSYM returns: Found 12 space group operations
 (whereof  6 operations were pure point group operations)
 out of a pool of 12 trial space group operations
 (whereof  6 operations were pure point group operations)
 and found also     1 'primitive' translations


The magnetic configuration has the point symmetry C_3v.
 The point group associated with its full space group is D_3d.
 
 
 KPOINTS: Automatic kpoint scheme                 

Automatic generation of k-mesh.
Space group operators:
 irot       det(A)        alpha          n_x          n_y          n_z        tau_x        tau_y        tau_z
    1     1.000000     0.000000     1.000000     0.000000     0.000000     0.000000     0.000000     0.000000
    2     1.000000   120.000000     0.000000     0.000000    -1.000000     0.000000     0.000000     0.000000
    3     1.000000   120.000000     0.000000     0.000000     1.000000     0.000000     0.000000     0.000000
    4    -1.000000   180.000000     0.866025    -0.500000     0.000000     0.000000     0.000000     0.000000
    5    -1.000000   180.000000     0.000000     1.000000     0.000000     0.000000     0.000000     0.000000
    6    -1.000000   180.000000     0.866025     0.500000     0.000000     0.000000     0.000000     0.000000
    7    -1.000000     0.000000     1.000000     0.000000     0.000000     0.000000     0.000000     0.125110
    8    -1.000000   120.000000     0.000000     0.000000    -1.000000     0.000000     0.000000     0.125110
    9    -1.000000   120.000000     0.000000     0.000000     1.000000     0.000000     0.000000     0.125110
   10     1.000000   180.000000     0.866025    -0.500000     0.000000     0.000000     0.000000     0.125110
   11     1.000000   180.000000     0.000000     1.000000     0.000000     0.000000     0.000000     0.125110
   12     1.000000   180.000000     0.866025     0.500000     0.000000     0.000000     0.000000     0.125110
 
 Subroutine IBZKPT returns following result:
 ===========================================
 
 Found     27 irreducible k-points:
 
 Following reciprocal coordinates:
            Coordinates               Weight
  0.000000  0.000000  0.000000      1.000000
  0.066667  0.000000  0.000000      6.000000
  0.133333  0.000000  0.000000      6.000000
  0.200000  0.000000  0.000000      6.000000
  0.266667  0.000000  0.000000      6.000000
  0.333333  0.000000  0.000000      6.000000
  0.400000  0.000000  0.000000      6.000000
  0.466667  0.000000  0.000000      6.000000
  0.066667  0.066667  0.000000      6.000000
  0.133333  0.066667  0.000000     12.000000
  0.200000  0.066667  0.000000     12.000000
  0.266667  0.066667  0.000000     12.000000
  0.333333  0.066667  0.000000     12.000000
  0.400000  0.066667  0.000000     12.000000
  0.466667  0.066667  0.000000      6.000000
  0.133333  0.133333  0.000000      6.000000
  0.200000  0.133333  0.000000     12.000000
  0.266667  0.133333  0.000000     12.000000
  0.333333  0.133333  0.000000     12.000000
  0.400000  0.133333  0.000000     12.000000
  0.200000  0.200000  0.000000      6.000000
  0.266667  0.200000  0.000000     12.000000
  0.333333  0.200000  0.000000     12.000000
  0.400000  0.200000  0.000000      6.000000
  0.266667  0.266667  0.000000      6.000000
  0.333333  0.266667  0.000000     12.000000
  0.333333  0.333333  0.000000      2.000000
 
 Following cartesian coordinates:
            Coordinates               Weight
  0.000000  0.000000  0.000000      1.000000
  0.018505  0.000000  0.000000      6.000000
  0.037011  0.000000  0.000000      6.000000
  0.055516  0.000000  0.000000      6.000000
  0.074021  0.000000  0.000000      6.000000
  0.092526  0.000000  0.000000      6.000000
  0.111032  0.000000  0.000000      6.000000
  0.129537  0.000000  0.000000      6.000000
  0.027758  0.016026  0.000000      6.000000
  0.046263  0.016026  0.000000     12.000000
  0.064768  0.016026  0.000000     12.000000
  0.083274  0.016026  0.000000     12.000000
  0.101779  0.016026  0.000000     12.000000
  0.120284  0.016026  0.000000     12.000000
  0.138790  0.016026  0.000000      6.000000
  0.055516  0.032052  0.000000      6.000000
  0.074021  0.032052  0.000000     12.000000
  0.092526  0.032052  0.000000     12.000000
  0.111032  0.032052  0.000000     12.000000
  0.129537  0.032052  0.000000     12.000000
  0.083274  0.048078  0.000000      6.000000
  0.101779  0.048078  0.000000     12.000000
  0.120284  0.048078  0.000000     12.000000
  0.138790  0.048078  0.000000      6.000000
  0.111032  0.064104  0.000000      6.000000
  0.129537  0.064104  0.000000     12.000000
  0.138790  0.080130  0.000000      2.000000
 


--------------------------------------------------------------------------------------------------------




 Dimension of arrays:
   k-points           NKPTS =     27   k-points in BZ     NKDIM =     27   number of bands    NBANDS=     16
   number of dos      NEDOS =   5000   number of ions     NIONS =      3
   non local maximal  LDIM  =      6   non local SUM 2l+1 LMDIM =     18
   total plane-waves  NPLWV = 151200
   max r-space proj   IRMAX =      1   max aug-charges    IRDMAX=  42236
   dimension x,y,z NGX =    30 NGY =   30 NGZ =  168
   dimension x,y,z NGXF=    60 NGYF=   60 NGZF=  336
   support grid    NGXF=    60 NGYF=   60 NGZF=  336
   ions per type =               2   1
 NGX,Y,Z   is equivalent  to a cutoff of  11.99, 11.99, 12.22 a.u.
 NGXF,Y,Z  is equivalent  to a cutoff of  23.98, 23.98, 24.44 a.u.


 I would recommend the setting:
   dimension x,y,z NGX =    30 NGY =   30 NGZ =  167
 SYSTEM =  unknown system                          
 POSCAR =  Surf-mp-569581                          

 Startparameter for this run:
   NWRITE =      2    write-flag & timer
   PREC   = accura    normal or accurate (medium, high low for compatibility)
   ISTART =      0    job   : 0-new  1-cont  2-samecut
   ICHARG =      2    charge: 1-file 2-atom 10-const
   ISPIN  =      2    spin polarized calculation?
   LNONCOLLINEAR =      F non collinear calculations
   LSORBIT =      F    spin-orbit coupling
   INIWAV =      1    electr: 0-lowe 1-rand  2-diag
   LASPH  =      F    aspherical Exc in radial PAW
   METAGGA=      F    non-selfconsistent MetaGGA calc.

 Electronic Relaxation 1
   ENCUT  =  500.0 eV  36.75 Ry    6.06 a.u.   7.58  7.58 41.68*2*pi/ulx,y,z
   ENINI  =  500.0     initial cutoff
   ENAUG  =  359.0 eV  augmentation charge cutoff
   NELM   =    500;   NELMIN=  2; NELMDL= -5     # of ELM steps 
   EDIFF  = 0.1E-06   stopping-criterion for ELM
   LREAL  =      F    real-space projection
   NLSPLINE    = F    spline interpolate recip. space projectors
   LCOMPAT=      F    compatible to vasp.4.4
   GGA_COMPAT  = T    GGA compatible to vasp.4.4-vasp.4.6
   LMAXPAW     = -100 max onsite density
   LMAXMIX     =    2 max onsite mixed and CHGCAR
   VOSKOWN=      0    Vosko Wilk Nusair interpolation
   ROPT   =    0.00000   0.00000
 Ionic relaxation
   EDIFFG = -.1E-02   stopping-criterion for IOM
   NSW    =    500    number of steps for IOM
   NBLOCK =      1;   KBLOCK =    500    inner block; outer block 
   IBRION =      2    ionic relax: 0-MD 1-quasi-New 2-CG
   NFREE  =      1    steps in history (QN), initial steepest desc. (CG)
   ISIF   =      3    stress and relaxation
   IWAVPR =     11    prediction:  0-non 1-charg 2-wave 3-comb
   ISYM   =      2    0-nonsym 1-usesym 2-fastsym
   LCORR  =      T    Harris-Foulkes like correction to forces

   POTIM  = 0.5000    time-step for ionic-motion
   TEIN   =    0.0    initial temperature
   TEBEG  =    0.0;   TEEND  =   0.0 temperature during run
   SMASS  =  -3.00    Nose mass-parameter (am)
   estimated Nose-frequenzy (Omega)   =  0.10E-29 period in steps =****** mass=  -0.395E-27a.u.
   SCALEE = 1.0000    scale energy and forces
   NPACO  =    256;   APACO  = 16.0  distance and # of slots for P.C.
   PSTRESS=    0.0 pullay stress

  Mass of Ions in am
   POMASS = 208.98195.08
  Ionic Valenz
   ZVAL   =   5.00 10.00
  Atomic Wigner-Seitz radii
   RWIGS  =  -1.00 -1.00
  virtual crystal weights 
   VCA    =   1.00  1.00
   NELECT =      20.0000    total number of electrons
   NUPDOWN=      -1.0000    fix difference up-down

 DOS related values:
   EMIN   =  10.00;   EMAX   =-10.00  energy-range for DOS
   EFERMI =   0.00
   ISMEAR =     0;   SIGMA  =   0.20  broadening in eV -4-tet -1-fermi 0-gaus

 Electronic relaxation 2 (details)
   IALGO  =     38    algorithm
   LDIAG  =      T    sub-space diagonalisation (order eigenvalues)
   LSUBROT=      F    optimize rotation matrix (better conditioning)
   TURBO    =      0    0=normal 1=particle mesh
   IRESTART =      0    0=no restart 2=restart with 2 vectors
   NREBOOT  =      0    no. of reboots
   NMIN     =      0    reboot dimension
   EREF     =   0.00    reference energy to select bands
   IMIX   =      4    mixing-type and parameters
     AMIX     =   0.40;   BMIX     =  1.00
     AMIX_MAG =   1.60;   BMIX_MAG =  1.00
     AMIN     =   0.10
     WC   =   100.;   INIMIX=   1;  MIXPRE=   1;  MAXMIX= -45

 Intra band minimization:
   WEIMIN = 0.0010     energy-eigenvalue tresh-hold
   EBREAK =  0.16E-08  absolut break condition
   DEPER  =   0.30     relativ break condition  

   TIME   =   0.40     timestep for ELM

  volume/ion in A,a.u.               =     114.20       770.63
  Fermi-wavevector in a.u.,A,eV,Ry     =   0.635078  1.200124  5.487561  0.403324
  Thomas-Fermi vector in A             =   1.699290
 
 Write flags
   LWAVE  =      F    write WAVECAR
   LCHARG =      F    write CHGCAR
   LVTOT  =      F    write LOCPOT, total local potential
   LVHAR  =      T    write LOCPOT, Hartree potential only
   LELF   =      F    write electronic localiz. function (ELF)
   LORBIT =     11    0 simple, 1 ext, 2 COOP (PROOUT)


 Dipole corrections
   LMONO  =      F    monopole corrections only (constant potential shift)
   LDIPOL =      F    correct potential (dipole corrections)
   IDIPOL =      0    1-x, 2-y, 3-z, 4-all directions 
   EPSILON=  1.0000000 bulk dielectric constant

 Exchange correlation treatment:
   GGA     =    BO    GGA type
   LEXCH   =    42    internal setting for exchange type
   VOSKOWN=      0    Vosko Wilk Nusair interpolation
   LHFCALC =     F    Hartree Fock is set to
   LHFONE  =     F    Hartree Fock one center treatment
   AEXX    =    0.0000 exact exchange contribution

 vdW DFT:
   LUSE_VDW   =     T    switch on vdW DFT
   Zab_VDW    =-.8491    correlation parameter
   PARAM1     =0.1833
   PARAM2     =0.2200
   PARAM3     =0.0000

 Linear response parameters
   LEPSILON=     F    determine dielectric tensor
   LRPA    =     F    only Hartree local field effects (RPA)
   LNABLA  =     F    use nabla operator in PAW spheres
   LVEL    =     F    velocity operator in full k-point grid
   LINTERFAST=   F  fast interpolation
   KINTER  =     0    interpolate to denser k-point grid
   CSHIFT  =0.1000    complex shift for real part using Kramers Kronig
   OMEGAMAX=  -1.0    maximum frequency
   DEG_THRESHOLD= 0.2000000E-02 threshold for treating states as degnerate
   RTIME   =    0.100 relaxation time in fs

 Orbital magnetization related:
   ORBITALMAG=     F  switch on orbital magnetization
   LCHIMAG   =     F  perturbation theory with respect to B field
   DQ        =  0.001000  dq finite difference perturbation B field



--------------------------------------------------------------------------------------------------------


 conjugate gradient relaxation of ions
 charge density and potential will be updated during run
 spin polarized calculation
 Variant of blocked Davidson
 Davidson routine will perform the subspace rotation
 perform sub-space diagonalisation
    after iterative eigenvector-optimisation
 modified Broyden-mixing scheme, WC =      100.0
 initial mixing is a Kerker type mixing with AMIX =  0.4000 and BMIX =      1.0000
 Hartree-type preconditioning will be used
 using additional bands            6
 reciprocal scheme for non local part
 use partial core corrections
 calculate Harris-corrections to forces 
   (improved forces if not selfconsistent)
 use gradient corrections 
 use of overlap-Matrix (Vanderbilt PP)
 Gauss-broadening in eV      SIGMA  =   0.20


--------------------------------------------------------------------------------------------------------


  energy-cutoff  :      500.00
  volume of cell :      342.59
      direct lattice vectors                 reciprocal lattice vectors
     3.602578000 -2.079949000  0.000000000     0.277579000  0.000000000  0.000000000
     0.000000000  4.159898000  0.000000000     0.138789500  0.240390510  0.000000000
     0.000000000  0.000000000 22.860029000     0.000000000  0.000000000  0.043744476

  length of vectors
     4.159898567  4.159898000 22.860029000     0.277579000  0.277579038  0.043744476


 
 k-points in units of 2pi/SCALE and weight: Automatic kpoint scheme                 
   0.00000000  0.00000000  0.00000000       0.004
   0.01850527  0.00000000  0.00000000       0.027
   0.03701053  0.00000000  0.00000000       0.027
   0.05551580  0.00000000  0.00000000       0.027
   0.07402107  0.00000000  0.00000000       0.027
   0.09252633  0.00000000  0.00000000       0.027
   0.11103160  0.00000000  0.00000000       0.027
   0.12953687  0.00000000  0.00000000       0.027
   0.02775790  0.01602603  0.00000000       0.027
   0.04626317  0.01602603  0.00000000       0.053
   0.06476843  0.01602603  0.00000000       0.053
   0.08327370  0.01602603  0.00000000       0.053
   0.10177897  0.01602603  0.00000000       0.053
   0.12028423  0.01602603  0.00000000       0.053
   0.13878950  0.01602603  0.00000000       0.027
   0.05551580  0.03205207  0.00000000       0.027
   0.07402107  0.03205207  0.00000000       0.053
   0.09252633  0.03205207  0.00000000       0.053
   0.11103160  0.03205207  0.00000000       0.053
   0.12953687  0.03205207  0.00000000       0.053
   0.08327370  0.04807810  0.00000000       0.027
   0.10177897  0.04807810  0.00000000       0.053
   0.12028423  0.04807810  0.00000000       0.053
   0.13878950  0.04807810  0.00000000       0.027
   0.11103160  0.06410414  0.00000000       0.027
   0.12953687  0.06410414  0.00000000       0.053
   0.13878950  0.08013017  0.00000000       0.009
 
 k-points in reciprocal lattice and weights: Automatic kpoint scheme                 
   0.00000000  0.00000000  0.00000000       0.004
   0.06666667  0.00000000  0.00000000       0.027
   0.13333333  0.00000000  0.00000000       0.027
   0.20000000  0.00000000  0.00000000       0.027
   0.26666667  0.00000000  0.00000000       0.027
   0.33333333  0.00000000  0.00000000       0.027
   0.40000000  0.00000000  0.00000000       0.027
   0.46666667  0.00000000  0.00000000       0.027
   0.06666667  0.06666667  0.00000000       0.027
   0.13333333  0.06666667  0.00000000       0.053
   0.20000000  0.06666667  0.00000000       0.053
   0.26666667  0.06666667  0.00000000       0.053
   0.33333333  0.06666667  0.00000000       0.053
   0.40000000  0.06666667  0.00000000       0.053
   0.46666667  0.06666667  0.00000000       0.027
   0.13333333  0.13333333  0.00000000       0.027
   0.20000000  0.13333333  0.00000000       0.053
   0.26666667  0.13333333  0.00000000       0.053
   0.33333333  0.13333333  0.00000000       0.053
   0.40000000  0.13333333  0.00000000       0.053
   0.20000000  0.20000000  0.00000000       0.027
   0.26666667  0.20000000  0.00000000       0.053
   0.33333333  0.20000000  0.00000000       0.053
   0.40000000  0.20000000  0.00000000       0.027
   0.26666667  0.26666667  0.00000000       0.027
   0.33333333  0.26666667  0.00000000       0.053
   0.33333333  0.33333333  0.00000000       0.009
 
 position of ions in fractional coordinates (direct lattice) 
   0.33333300  0.66666700  0.12511000
   0.66666700  0.33333300  0.00000000
   0.00000000  0.00000000  0.06255500
 
 position of ions in cartesian coordinates  (Angst):
   1.20085813  2.07995108  2.86001823
   2.40171987 -0.00000208  0.00000000
   0.00000000  0.00000000  1.43000911
 


--------------------------------------------------------------------------------------------------------


 k-point  1 :   0.0000 0.0000 0.0000  plane waves:    8729
 k-point  2 :   0.0667 0.0000 0.0000  plane waves:    8729
 k-point  3 :   0.1333 0.0000 0.0000  plane waves:    8725
 k-point  4 :   0.2000 0.0000 0.0000  plane waves:    8745
 k-point  5 :   0.2667 0.0000 0.0000  plane waves:    8735
 k-point  6 :   0.3333 0.0000 0.0000  plane waves:    8719
 k-point  7 :   0.4000 0.0000 0.0000  plane waves:    8681
 k-point  8 :   0.4667 0.0000 0.0000  plane waves:    8696
 k-point  9 :   0.0667 0.0667 0.0000  plane waves:    8731
 k-point 10 :   0.1333 0.0667 0.0000  plane waves:    8731
 k-point 11 :   0.2000 0.0667 0.0000  plane waves:    8725
 k-point 12 :   0.2667 0.0667 0.0000  plane waves:    8713
 k-point 13 :   0.3333 0.0667 0.0000  plane waves:    8687
 k-point 14 :   0.4000 0.0667 0.0000  plane waves:    8668
 k-point 15 :   0.4667 0.0667 0.0000  plane waves:    8684
 k-point 16 :   0.1333 0.1333 0.0000  plane waves:    8725
 k-point 17 :   0.2000 0.1333 0.0000  plane waves:    8707
 k-point 18 :   0.2667 0.1333 0.0000  plane waves:    8694
 k-point 19 :   0.3333 0.1333 0.0000  plane waves:    8669
 k-point 20 :   0.4000 0.1333 0.0000  plane waves:    8674
 k-point 21 :   0.2000 0.2000 0.0000  plane waves:    8701
 k-point 22 :   0.2667 0.2000 0.0000  plane waves:    8674
 k-point 23 :   0.3333 0.2000 0.0000  plane waves:    8666
 k-point 24 :   0.4000 0.2000 0.0000  plane waves:    8668
 k-point 25 :   0.2667 0.2667 0.0000  plane waves:    8656
 k-point 26 :   0.3333 0.2667 0.0000  plane waves:    8673
 k-point 27 :   0.3333 0.3333 0.0000  plane waves:    8664

 maximum and minimum number of plane-waves per node :      2200     2154

 maximum number of plane-waves:      8745
 maximum index in each direction: 
   IXMAX=    7   IYMAX=    7   IZMAX=   41
   IXMIN=   -8   IYMIN=   -7   IZMIN=  -41

 WARNING: aliasing errors must be expected set NGX to  32 to avoid them
 NGY is ok and might be reduce to  30
 NGZ is ok and might be reduce to 166
 aliasing errors are usually negligible using standard VASP settings
 and one can safely disregard these warnings

 parallel 3D FFT for wavefunctions:
    minimum data exchange during FFTs selected (reduces bandwidth)
 parallel 3D FFT for charge:
    minimum data exchange during FFTs selected (reduces bandwidth)


 total amount of memory used by VASP on root node    60092. kBytes
========================================================================

   base      :      30000. kBytes
   nonl-proj :      17212. kBytes
   fftplans  :       2532. kBytes
   grid      :       6474. kBytes
   one-center:         31. kBytes
   wavefun   :       3843. kBytes
 
     INWAV:  cpu time    0.0000: real time    0.0000
 Broyden mixing: mesh for mixing (old mesh)
   NGX = 15   NGY = 15   NGZ = 83
  (NGX  = 60   NGY  = 60   NGZ  =336)
  gives a total of  18675 points

 initial charge density was supplied:
 charge density of overlapping atoms calculated
 number of electron      20.0000000 magnetization       3.0000000
 keeping initial charge density in first step


--------------------------------------------------------------------------------------------------------


 Maximum index for augmentation-charges         1510 (set IRDMAX)


--------------------------------------------------------------------------------------------------------


 First call to EWALD:  gamma=   0.253
 Maximum number of real-space cells 5x 5x 1
 Maximum number of reciprocal cells 2x 2x 8

 FEWALD executed in parallel
    FEWALD:  cpu time    0.0025: real time    0.0025


----------------------------------------- Iteration    1(   1)  ---------------------------------------


vdW kernel read from vdw_kernel.bindat
  0.0000  0.2424  0.5071  0.7962  1.1119  1.4567  1.8333  2.2446  2.6937  3.1842
  3.7199  4.3049  4.9438  5.6415  6.4036  7.2358  8.1446  9.1372 10.2212 11.4050
 12.6979 14.1099 15.6519 17.3360 19.1751 21.1837 23.3773 25.7729 28.3892 31.2465
 34.3669 37.7748 41.4965 45.5611 50.0000
 
    POTLOK:  cpu time    2.8017: real time    2.8026
    SETDIJ:  cpu time    0.0178: real time    0.0178
     EDDAV:  cpu time    3.8786: real time    3.8801
       DOS:  cpu time    0.0073: real time    0.0073
    --------------------------------------------
      LOOP:  cpu time    6.7099: real time    6.7176

 eigenvalue-minimisations  :  1728
 total energy-change (2. order) : 0.1286365E+03  (-0.5488653E+03)
 number of electron      20.0000000 magnetization       3.0000000
 augmentation part       20.0000000 magnetization       3.0000000

 Free energy of the ion-electron system (eV)
  ---------------------------------------------------
  alpha Z        PSCENC =         6.95023140
  Ewald energy   TEWEN  =      2243.80739507
  -Hartree energ DENC   =     -3208.94631914
  -exchange      EXHF   =         0.00000000
  -V(xc)+E(xc)   XCENC  =      -220.99337090
  PAW double counting   =      1186.30826540     -918.45702141
  entropy T*S    EENTRO =        -0.06673102
  eigenvalues    EBANDS =         1.42065536
  atomic energy  EATOM  =      1038.61338829
  Solvation  Ediel_sol  =         0.00000000
  ---------------------------------------------------
  free energy    TOTEN  =       128.63649305 eV

  energy without entropy =      128.70322407  energy(sigma->0) =      128.66985856


--------------------------------------------------------------------------------------------------------




----------------------------------------- Iteration    1(   2)  ---------------------------------------


     EDDAV:  cpu time    5.3703: real time    5.3713
       DOS:  cpu time    0.0084: real time    0.0084
    --------------------------------------------
      LOOP:  cpu time    5.3801: real time    5.3911

 eigenvalue-minimisations  :  2728
 total energy-change (2. order) :-0.1214244E+03  (-0.1126930E+03)
 number of electron      20.0000000 magnetization       3.0000000
 augmentation part       20.0000000 magnetization       3.0000000

 Free energy of the ion-electron system (eV)
  ---------------------------------------------------
  alpha Z        PSCENC =         6.95023140
  Ewald energy   TEWEN  =      2243.80739507
  -Hartree energ DENC   =     -3208.94631914
  -exchange      EXHF   =         0.00000000
  -V(xc)+E(xc)   XCENC  =      -220.99337090
  PAW double counting   =      1186.30826540     -918.45702141
  entropy T*S    EENTRO =        -0.04132626
  eigenvalues    EBANDS =      -120.02918859
  atomic energy  EATOM  =      1038.61338829
  Solvation  Ediel_sol  =         0.00000000
  ---------------------------------------------------
  free energy    TOTEN  =         7.21205386 eV

  energy without entropy =        7.25338012  energy(sigma->0) =        7.23271699


--------------------------------------------------------------------------------------------------------




----------------------------------------- Iteration    1(   3)  ---------------------------------------


     EDDAV:  cpu time    4.7105: real time    4.7112
       DOS:  cpu time    0.0082: real time    0.0082
    --------------------------------------------
      LOOP:  cpu time    4.7208: real time    4.7310

 eigenvalue-minimisations  :  2264
 total energy-change (2. order) :-0.1282196E+02  (-0.1259536E+02)
 number of electron      20.0000000 magnetization       3.0000000
 augmentation part       20.0000000 magnetization       3.0000000

 Free energy of the ion-electron system (eV)
  ---------------------------------------------------
  alpha Z        PSCENC =         6.95023140
  Ewald energy   TEWEN  =      2243.80739507
  -Hartree energ DENC   =     -3208.94631914
  -exchange      EXHF   =         0.00000000
  -V(xc)+E(xc)   XCENC  =      -220.99337090
  PAW double counting   =      1186.30826540     -918.45702141
  entropy T*S    EENTRO =        -0.04028453
  eigenvalues    EBANDS =      -132.85218558
  atomic energy  EATOM  =      1038.61338829
  Solvation  Ediel_sol  =         0.00000000
  ---------------------------------------------------
  free energy    TOTEN  =        -5.60990139 eV

  energy without entropy =       -5.56961686  energy(sigma->0) =       -5.58975913


--------------------------------------------------------------------------------------------------------




----------------------------------------- Iteration    1(   4)  ---------------------------------------


     EDDAV:  cpu time    5.0615: real time    5.0625
       DOS:  cpu time    0.0084: real time    0.0084
    --------------------------------------------
      LOOP:  cpu time    5.0712: real time    5.0811

 eigenvalue-minimisations  :  2600
 total energy-change (2. order) :-0.3313903E+00  (-0.3311164E+00)
 number of electron      20.0000000 magnetization       3.0000000
 augmentation part       20.0000000 magnetization       3.0000000

 Free energy of the ion-electron system (eV)
  ---------------------------------------------------
  alpha Z        PSCENC =         6.95023140
  Ewald energy   TEWEN  =      2243.80739507
  -Hartree energ DENC   =     -3208.94631914
  -exchange      EXHF   =         0.00000000
  -V(xc)+E(xc)   XCENC  =      -220.99337090
  PAW double counting   =      1186.30826540     -918.45702141
  entropy T*S    EENTRO =        -0.03998641
  eigenvalues    EBANDS =      -133.18387398
  atomic energy  EATOM  =      1038.61338829
  Solvation  Ediel_sol  =         0.00000000
  ---------------------------------------------------
  free energy    TOTEN  =        -5.94129167 eV

  energy without entropy =       -5.90130526  energy(sigma->0) =       -5.92129847


--------------------------------------------------------------------------------------------------------




----------------------------------------- Iteration    1(   5)  ---------------------------------------


     EDDAV:  cpu time    5.0872: real time    5.0884
       DOS:  cpu time    0.0085: real time    0.0085
    CHARGE:  cpu time    0.1863: real time    0.1863
    MIXING:  cpu time    0.0032: real time    0.0034
    --------------------------------------------
      LOOP:  cpu time    5.2870: real time    5.2996

 eigenvalue-minimisations  :  2560
 total energy-change (2. order) :-0.3204124E-02  (-0.3203988E-02)
 number of electron      19.9999997 magnetization       2.7196321
 augmentation part       -0.2179950 magnetization       2.2122581

 Broyden mixing:
  rms(total) = 0.77543E+00    rms(broyden)= 0.77543E+00
  rms(prec ) = 0.79103E+00
  weight for this iteration     100.00

 Free energy of the ion-electron system (eV)
  ---------------------------------------------------
  alpha Z        PSCENC =         6.95023140
  Ewald energy   TEWEN  =      2243.80739507
  -Hartree energ DENC   =     -3208.94631914
  -exchange      EXHF   =         0.00000000
  -V(xc)+E(xc)   XCENC  =      -220.99337090
  PAW double counting   =      1186.30826540     -918.45702141
  entropy T*S    EENTRO =        -0.03998249
  eigenvalues    EBANDS =      -133.18708203
  atomic energy  EATOM  =      1038.61338829
  Solvation  Ediel_sol  =         0.00000000
  ---------------------------------------------------
  free energy    TOTEN  =        -5.94449580 eV

  energy without entropy =       -5.90451331  energy(sigma->0) =       -5.92450455


--------------------------------------------------------------------------------------------------------




----------------------------------------- Iteration    1(   6)  ---------------------------------------


    POTLOK:  cpu time    2.1893: real time    2.1894
    SETDIJ:  cpu time    0.0177: real time    0.0177
     EDDAV:  cpu time    4.9105: real time    4.9118
       DOS:  cpu time    0.0087: real time    0.0087
    CHARGE:  cpu time    0.1858: real time    0.1858
    MIXING:  cpu time    0.0029: real time    0.0029
    --------------------------------------------
      LOOP:  cpu time    7.3166: real time    7.3262

 eigenvalue-minimisations  :  2656
 total energy-change (2. order) :-0.3693515E+01  (-0.3268112E+01)
 number of electron      19.9999997 magnetization       2.5886671
 augmentation part        0.0410650 magnetization       2.6853008

 Broyden mixing:
  rms(total) = 0.88999E+00    rms(broyden)= 0.88514E+00
  rms(prec ) = 0.91386E+00
  weight for this iteration     100.00

 eigenvalues of (default mixing * dielectric matrix)
  average eigenvalue GAMMA=   0.2949
  0.2949

 Free energy of the ion-electron system (eV)
  ---------------------------------------------------
  alpha Z        PSCENC =         6.95023140
  Ewald energy   TEWEN  =      2243.80739507
  -Hartree energ DENC   =     -3206.00485775
  -exchange      EXHF   =         0.00000000
  -V(xc)+E(xc)   XCENC  =      -221.04180314
  PAW double counting   =      1268.97828138    -1002.79333485
  entropy T*S    EENTRO =        -0.04833360
  eigenvalues    EBANDS =      -138.09897735
  atomic energy  EATOM  =      1038.61338829
  Solvation  Ediel_sol  =         0.00000000
  ---------------------------------------------------
  free energy    TOTEN  =        -9.63801054 eV

  energy without entropy =       -9.58967694  energy(sigma->0) =       -9.61384374


--------------------------------------------------------------------------------------------------------




----------------------------------------- Iteration    1(   7)  ---------------------------------------


    POTLOK:  cpu time    2.1820: real time    2.1822
    SETDIJ:  cpu time    0.0174: real time    0.0174
     EDDAV:  cpu time    4.1168: real time    4.1177
       DOS:  cpu time    0.0076: real time    0.0076
    CHARGE:  cpu time    0.1834: real time    0.1834
    MIXING:  cpu time    0.0030: real time    0.0030
    --------------------------------------------
      LOOP:  cpu time    6.5119: real time    6.5219

 eigenvalue-minimisations  :  1976
 total energy-change (2. order) : 0.4859811E+01  (-0.4769574E+02)
 number of electron      19.9999997 magnetization       2.3032379
 augmentation part       -0.0170068 magnetization       1.7051069

 Broyden mixing:
  rms(total) = 0.48485E+00    rms(broyden)= 0.47913E+00
  rms(prec ) = 0.49128E+00
  weight for this iteration     100.00

 eigenvalues of (default mixing * dielectric matrix)
  average eigenvalue GAMMA=   0.6750
  1.0932  0.2569

 Free energy of the ion-electron system (eV)
  ---------------------------------------------------
  alpha Z        PSCENC =         6.95023140
  Ewald energy   TEWEN  =      2243.80739507
  -Hartree energ DENC   =     -3201.66552143
  -exchange      EXHF   =         0.00000000
  -V(xc)+E(xc)   XCENC  =      -220.50226816
  PAW double counting   =      1279.48571939    -1013.52516982
  entropy T*S    EENTRO =        -0.03936661
  eigenvalues    EBANDS =      -137.90260766
  atomic energy  EATOM  =      1038.61338829
  Solvation  Ediel_sol  =         0.00000000
  ---------------------------------------------------
  free energy    TOTEN  =        -4.77819953 eV

  energy without entropy =       -4.73883292  energy(sigma->0) =       -4.75851622


--------------------------------------------------------------------------------------------------------




----------------------------------------- Iteration    1(   8)  ---------------------------------------


    POTLOK:  cpu time    2.1753: real time    2.1763
    SETDIJ:  cpu time    0.0179: real time    0.0180
     EDDAV:  cpu time    4.1288: real time    4.1294
       DOS:  cpu time    0.0080: real time    0.0080
    CHARGE:  cpu time    0.1861: real time    0.1861
    MIXING:  cpu time    0.0029: real time    0.0029
    --------------------------------------------
      LOOP:  cpu time    6.5208: real time    6.5308

 eigenvalue-minimisations  :  2064
 total energy-change (2. order) :-0.5666080E+00  (-0.5722034E-01)
 number of electron      19.9999997 magnetization       1.9512207
 augmentation part       -0.1250830 magnetization       1.4808933

 Broyden mixing:
  rms(total) = 0.30047E+00    rms(broyden)= 0.30011E+00
  rms(prec ) = 0.30944E+00
  weight for this iteration     100.00

 eigenvalues of (default mixing * dielectric matrix)
  average eigenvalue GAMMA=   0.9126
  1.7490  0.2987  0.6902

 Free energy of the ion-electron system (eV)
  ---------------------------------------------------
  alpha Z        PSCENC =         6.95023140
  Ewald energy   TEWEN  =      2243.80739507
  -Hartree energ DENC   =     -3205.37648245
  -exchange      EXHF   =         0.00000000
  -V(xc)+E(xc)   XCENC  =      -220.91310012
  PAW double counting   =      1332.46597142    -1067.27452640
  entropy T*S    EENTRO =        -0.04063747
  eigenvalues    EBANDS =      -133.57704728
  atomic energy  EATOM  =      1038.61338829
  Solvation  Ediel_sol  =         0.00000000
  ---------------------------------------------------
  free energy    TOTEN  =        -5.34480753 eV

  energy without entropy =       -5.30417006  energy(sigma->0) =       -5.32448880


--------------------------------------------------------------------------------------------------------




----------------------------------------- Iteration    1(   9)  ---------------------------------------


    POTLOK:  cpu time    2.1759: real time    2.1763
    SETDIJ:  cpu time    0.0175: real time    0.0175
     EDDAV:  cpu time    4.2366: real time    4.2367
       DOS:  cpu time    0.0084: real time    0.0084
    CHARGE:  cpu time    0.1829: real time    0.1829
    MIXING:  cpu time    0.0031: real time    0.0031
    --------------------------------------------
      LOOP:  cpu time    6.6260: real time    6.6428

 eigenvalue-minimisations  :  2128
 total energy-change (2. order) :-0.2682312E-01  (-0.1140380E-01)
 number of electron      19.9999997 magnetization       1.6762996
 augmentation part       -0.1016637 magnetization       1.2851818

 Broyden mixing:
  rms(total) = 0.23254E+00    rms(broyden)= 0.23252E+00
  rms(prec ) = 0.24054E+00
  weight for this iteration     100.00

 eigenvalues of (default mixing * dielectric matrix)
  average eigenvalue GAMMA=   0.9952
  2.0527  0.2934  0.8272  0.8076

 Free energy of the ion-electron system (eV)
  ---------------------------------------------------
  alpha Z        PSCENC =         6.95023140
  Ewald energy   TEWEN  =      2243.80739507
  -Hartree energ DENC   =     -3205.86066224
  -exchange      EXHF   =         0.00000000
  -V(xc)+E(xc)   XCENC  =      -220.90672444
  PAW double counting   =      1368.24515868    -1103.73490259
  entropy T*S    EENTRO =        -0.03979824
  eigenvalues    EBANDS =      -132.44571659
  atomic energy  EATOM  =      1038.61338829
  Solvation  Ediel_sol  =         0.00000000
  ---------------------------------------------------
  free energy    TOTEN  =        -5.37163065 eV

  energy without entropy =       -5.33183241  energy(sigma->0) =       -5.35173153


--------------------------------------------------------------------------------------------------------




----------------------------------------- Iteration    1(  10)  ---------------------------------------


    POTLOK:  cpu time    2.1708: real time    2.1709
    SETDIJ:  cpu time    0.0176: real time    0.0176
     EDDAV:  cpu time    4.3382: real time    4.3388
       DOS:  cpu time    0.0084: real time    0.0084
    CHARGE:  cpu time    0.1792: real time    0.1792
    MIXING:  cpu time    0.0032: real time    0.0032
    --------------------------------------------
      LOOP:  cpu time    6.7192: real time    6.7336

 eigenvalue-minimisations  :  2208
 total energy-change (2. order) :-0.6017801E-01  (-0.2753763E-02)
 number of electron      19.9999997 magnetization       1.0204405
 augmentation part       -0.0948899 magnetization       0.6937586

 Broyden mixing:
  rms(total) = 0.18760E+00    rms(broyden)= 0.18759E+00
  rms(prec ) = 0.19401E+00
  weight for this iteration     100.00

 eigenvalues of (default mixing * dielectric matrix)
  average eigenvalue GAMMA=   1.1903
  2.0676  2.0676  0.2949  0.8936  0.6280

 Free energy of the ion-electron system (eV)
  ---------------------------------------------------
  alpha Z        PSCENC =         6.95023140
  Ewald energy   TEWEN  =      2243.80739507
  -Hartree energ DENC   =     -3208.07674671
  -exchange      EXHF   =         0.00000000
  -V(xc)+E(xc)   XCENC  =      -220.95567800
  PAW double counting   =      1372.79341165    -1108.42790866
  entropy T*S    EENTRO =        -0.03914909
  eigenvalues    EBANDS =      -130.09675262
  atomic energy  EATOM  =      1038.61338829
  Solvation  Ediel_sol  =         0.00000000
  ---------------------------------------------------
  free energy    TOTEN  =        -5.43180866 eV

  energy without entropy =       -5.39265957  energy(sigma->0) =       -5.41223411


--------------------------------------------------------------------------------------------------------




----------------------------------------- Iteration    1(  11)  ---------------------------------------


    POTLOK:  cpu time    2.1771: real time    2.1773
    SETDIJ:  cpu time    0.0173: real time    0.0173
     EDDAV:  cpu time    4.4163: real time    4.4172
       DOS:  cpu time    0.0087: real time    0.0087
    CHARGE:  cpu time    0.2338: real time    0.2339
    MIXING:  cpu time    0.0030: real time    0.0030
    --------------------------------------------
      LOOP:  cpu time    6.8580: real time    6.8768

 eigenvalue-minimisations  :  2136
 total energy-change (2. order) :-0.2091018E+00  (-0.1026077E-01)
 number of electron      19.9999997 magnetization       0.4843569
 augmentation part       -0.0889831 magnetization       0.2889358

 Broyden mixing:
  rms(total) = 0.92352E-01    rms(broyden)= 0.92352E-01
  rms(prec ) = 0.94183E-01
  weight for this iteration     100.00

 eigenvalues of (default mixing * dielectric matrix)
  average eigenvalue GAMMA=   1.5893
  4.7440  2.2081  0.2946  0.9398  0.6747  0.6747

 Free energy of the ion-electron system (eV)
  ---------------------------------------------------
  alpha Z        PSCENC =         6.95023140
  Ewald energy   TEWEN  =      2243.80739507
  -Hartree energ DENC   =     -3214.12126141
  -exchange      EXHF   =         0.00000000
  -V(xc)+E(xc)   XCENC  =      -221.03865430
  PAW double counting   =      1371.52637500    -1107.26158093
  entropy T*S    EENTRO =        -0.03836788
  eigenvalues    EBANDS =      -124.07843567
  atomic energy  EATOM  =      1038.61338829
  Solvation  Ediel_sol  =         0.00000000
  ---------------------------------------------------
  free energy    TOTEN  =        -5.64091043 eV

  energy without entropy =       -5.60254255  energy(sigma->0) =       -5.62172649


--------------------------------------------------------------------------------------------------------




----------------------------------------- Iteration    1(  12)  ---------------------------------------


    POTLOK:  cpu time    2.1829: real time    2.1831
    SETDIJ:  cpu time    0.0174: real time    0.0173
     EDDAV:  cpu time    4.0564: real time    4.0564
       DOS:  cpu time    0.0087: real time    0.0087
    CHARGE:  cpu time    0.1760: real time    0.1760
    MIXING:  cpu time    0.0035: real time    0.0035
    --------------------------------------------
      LOOP:  cpu time    6.4467: real time    6.4588

 eigenvalue-minimisations  :  2040
 total energy-change (2. order) :-0.8576466E-01  (-0.8525320E-02)
 number of electron      19.9999997 magnetization       0.2001124
 augmentation part       -0.0692553 magnetization       0.1259638

 Broyden mixing:
  rms(total) = 0.56692E-01    rms(broyden)= 0.56692E-01
  rms(prec ) = 0.57783E-01
  weight for this iteration     100.00

 eigenvalues of (default mixing * dielectric matrix)
  average eigenvalue GAMMA=   1.7765
  6.5927  2.2321  0.2946  1.1048  0.8929  0.6849  0.6338

 Free energy of the ion-electron system (eV)
  ---------------------------------------------------
  alpha Z        PSCENC =         6.95023140
  Ewald energy   TEWEN  =      2243.80739507
  -Hartree energ DENC   =     -3218.34822210
  -exchange      EXHF   =         0.00000000
  -V(xc)+E(xc)   XCENC  =      -221.02478238
  PAW double counting   =      1368.56249625    -1104.33040751
  entropy T*S    EENTRO =        -0.03830976
  eigenvalues    EBANDS =      -119.91846435
  atomic energy  EATOM  =      1038.61338829
  Solvation  Ediel_sol  =         0.00000000
  ---------------------------------------------------
  free energy    TOTEN  =        -5.72667508 eV

  energy without entropy =       -5.68836532  energy(sigma->0) =       -5.70752020


--------------------------------------------------------------------------------------------------------




----------------------------------------- Iteration    1(  13)  ---------------------------------------


    POTLOK:  cpu time    2.1697: real time    2.1697
    SETDIJ:  cpu time    0.0174: real time    0.0174
     EDDAV:  cpu time    4.2847: real time    4.2862
       DOS:  cpu time    0.0088: real time    0.0088
    CHARGE:  cpu time    0.1795: real time    0.1795
    MIXING:  cpu time    0.0033: real time    0.0033
    --------------------------------------------
      LOOP:  cpu time    6.6651: real time    6.6749

 eigenvalue-minimisations  :  2136
 total energy-change (2. order) :-0.1042935E-01  (-0.1591434E-02)
 number of electron      19.9999997 magnetization       0.0572286
 augmentation part       -0.0696022 magnetization       0.0318779

 Broyden mixing:
  rms(total) = 0.55999E-01    rms(broyden)= 0.55999E-01
  rms(prec ) = 0.57943E-01
  weight for this iteration     100.00

 eigenvalues of (default mixing * dielectric matrix)
  average eigenvalue GAMMA=   2.0636
  8.7993  2.1810  2.1810  0.2946  1.0034  0.7171  0.7171  0.6151

 Free energy of the ion-electron system (eV)
  ---------------------------------------------------
  alpha Z        PSCENC =         6.95023140
  Ewald energy   TEWEN  =      2243.80739507
  -Hartree energ DENC   =     -3220.46964979
  -exchange      EXHF   =         0.00000000
  -V(xc)+E(xc)   XCENC  =      -220.98974487
  PAW double counting   =      1367.49572262    -1103.21356558
  entropy T*S    EENTRO =        -0.03840834
  eigenvalues    EBANDS =      -117.89247326
  atomic energy  EATOM  =      1038.61338829
  Solvation  Ediel_sol  =         0.00000000
  ---------------------------------------------------
  free energy    TOTEN  =        -5.73710444 eV

  energy without entropy =       -5.69869610  energy(sigma->0) =       -5.71790027


--------------------------------------------------------------------------------------------------------




----------------------------------------- Iteration    1(  14)  ---------------------------------------


    POTLOK:  cpu time    2.1725: real time    2.1725
    SETDIJ:  cpu time    0.0173: real time    0.0173
     EDDAV:  cpu time    4.1640: real time    4.1646
       DOS:  cpu time    0.0086: real time    0.0086
    CHARGE:  cpu time    0.1786: real time    0.1786
    MIXING:  cpu time    0.0036: real time    0.0036
    --------------------------------------------
      LOOP:  cpu time    6.5462: real time    6.5554

 eigenvalue-minimisations  :  2016
 total energy-change (2. order) :-0.2185506E-02  (-0.4494411E-03)
 number of electron      19.9999997 magnetization       0.0446848
 augmentation part       -0.0713351 magnetization       0.0445091

 Broyden mixing:
  rms(total) = 0.48038E-01    rms(broyden)= 0.48038E-01
  rms(prec ) = 0.50178E-01
  weight for this iteration     100.00

 eigenvalues of (default mixing * dielectric matrix)
  average eigenvalue GAMMA=   2.0576
  9.4819  2.4056  2.4056  0.2946  1.0637  0.8146  0.8146  0.6186  0.6186

 Free energy of the ion-electron system (eV)
  ---------------------------------------------------
  alpha Z        PSCENC =         6.95023140
  Ewald energy   TEWEN  =      2243.80739507
  -Hartree energ DENC   =     -3221.20136927
  -exchange      EXHF   =         0.00000000
  -V(xc)+E(xc)   XCENC  =      -220.98201236
  PAW double counting   =      1368.80214344    -1104.49969038
  entropy T*S    EENTRO =        -0.03843380
  eigenvalues    EBANDS =      -117.19094235
  atomic energy  EATOM  =      1038.61338829
  Solvation  Ediel_sol  =         0.00000000
  ---------------------------------------------------
  free energy    TOTEN  =        -5.73928994 eV

  energy without entropy =       -5.70085615  energy(sigma->0) =       -5.72007305


--------------------------------------------------------------------------------------------------------




----------------------------------------- Iteration    1(  15)  ---------------------------------------


    POTLOK:  cpu time    2.1748: real time    2.1752
    SETDIJ:  cpu time    0.0178: real time    0.0178
     EDDAV:  cpu time    4.0250: real time    4.0260
       DOS:  cpu time    0.0087: real time    0.0087
    CHARGE:  cpu time    0.1798: real time    0.1798
    MIXING:  cpu time    0.0037: real time    0.0037
    --------------------------------------------
      LOOP:  cpu time    6.4114: real time    6.4239

 eigenvalue-minimisations  :  1896
 total energy-change (2. order) :-0.4450219E-02  (-0.1336078E-03)
 number of electron      19.9999997 magnetization       0.0289277
 augmentation part       -0.0711356 magnetization       0.0292957

 Broyden mixing:
  rms(total) = 0.39240E-01    rms(broyden)= 0.39240E-01
  rms(prec ) = 0.41096E-01
  weight for this iteration     100.00

 eigenvalues of (default mixing * dielectric matrix)
  average eigenvalue GAMMA=   2.0674
  9.6604  2.6497  2.6497  1.5561  0.2946  1.0097  0.9213  0.6622  0.6622  0.6083

 Free energy of the ion-electron system (eV)
  ---------------------------------------------------
  alpha Z        PSCENC =         6.95023140
  Ewald energy   TEWEN  =      2243.80739507
  -Hartree energ DENC   =     -3221.03625062
  -exchange      EXHF   =         0.00000000
  -V(xc)+E(xc)   XCENC  =      -220.99376500
  PAW double counting   =      1369.45636418    -1105.15543356
  entropy T*S    EENTRO =        -0.03837991
  eigenvalues    EBANDS =      -117.34729003
  atomic energy  EATOM  =      1038.61338829
  Solvation  Ediel_sol  =         0.00000000
  ---------------------------------------------------
  free energy    TOTEN  =        -5.74374016 eV

  energy without entropy =       -5.70536026  energy(sigma->0) =       -5.72455021


--------------------------------------------------------------------------------------------------------




----------------------------------------- Iteration    1(  16)  ---------------------------------------


    POTLOK:  cpu time    2.1764: real time    2.1770
    SETDIJ:  cpu time    0.0181: real time    0.0181
     EDDAV:  cpu time    3.6724: real time    3.6736
       DOS:  cpu time    0.0086: real time    0.0086
    CHARGE:  cpu time    0.1783: real time    0.1783
    MIXING:  cpu time    0.0037: real time    0.0037
    --------------------------------------------
      LOOP:  cpu time    6.0594: real time    6.0849

 eigenvalue-minimisations  :  1752
 total energy-change (2. order) :-0.6412867E-02  (-0.2463164E-03)
 number of electron      19.9999997 magnetization       0.0158843
 augmentation part       -0.0720517 magnetization       0.0156580

 Broyden mixing:
  rms(total) = 0.23177E-01    rms(broyden)= 0.23177E-01
  rms(prec ) = 0.24418E-01
  weight for this iteration     100.00

 eigenvalues of (default mixing * dielectric matrix)
  average eigenvalue GAMMA=   2.1442
 10.0507  3.8138  2.7407  2.0028  0.2946  1.0869  0.9333  0.7196  0.7196  0.6119
  0.6119

 Free energy of the ion-electron system (eV)
  ---------------------------------------------------
  alpha Z        PSCENC =         6.95023140
  Ewald energy   TEWEN  =      2243.80739507
  -Hartree energ DENC   =     -3220.68940754
  -exchange      EXHF   =         0.00000000
  -V(xc)+E(xc)   XCENC  =      -221.01781884
  PAW double counting   =      1369.42573889    -1105.11674876
  entropy T*S    EENTRO =        -0.03825737
  eigenvalues    EBANDS =      -117.68467418
  atomic energy  EATOM  =      1038.61338829
  Solvation  Ediel_sol  =         0.00000000
  ---------------------------------------------------
  free energy    TOTEN  =        -5.75015303 eV

  energy without entropy =       -5.71189566  energy(sigma->0) =       -5.73102435


--------------------------------------------------------------------------------------------------------




----------------------------------------- Iteration    1(  17)  ---------------------------------------


    POTLOK:  cpu time    2.1805: real time    2.1806
    SETDIJ:  cpu time    0.0171: real time    0.0171
     EDDAV:  cpu time    3.9295: real time    3.9303
       DOS:  cpu time    0.0088: real time    0.0088
    CHARGE:  cpu time    0.1805: real time    0.1805
    MIXING:  cpu time    0.0038: real time    0.0038
    --------------------------------------------
      LOOP:  cpu time    6.3219: real time    6.3367

 eigenvalue-minimisations  :  1872
 total energy-change (2. order) :-0.1153655E-01  (-0.1720518E-03)
 number of electron      19.9999997 magnetization       0.0113902
 augmentation part       -0.0732077 magnetization       0.0111311

 Broyden mixing:
  rms(total) = 0.13595E-01    rms(broyden)= 0.13595E-01
  rms(prec ) = 0.14581E-01
  weight for this iteration     100.00

 eigenvalues of (default mixing * dielectric matrix)
  average eigenvalue GAMMA=   2.1579
 10.2990  4.5899  2.7824  2.0344  1.4012  0.2946  1.0368  0.8413  0.7320  0.6367
  0.6367  0.6094

 Free energy of the ion-electron system (eV)
  ---------------------------------------------------
  alpha Z        PSCENC =         6.95023140
  Ewald energy   TEWEN  =      2243.80739507
  -Hartree energ DENC   =     -3220.45739024
  -exchange      EXHF   =         0.00000000
  -V(xc)+E(xc)   XCENC  =      -221.03179159
  PAW double counting   =      1369.13208437    -1104.81656333
  entropy T*S    EENTRO =        -0.03821899
  eigenvalues    EBANDS =      -117.92082457
  atomic energy  EATOM  =      1038.61338829
  Solvation  Ediel_sol  =         0.00000000
  ---------------------------------------------------
  free energy    TOTEN  =        -5.76168958 eV

  energy without entropy =       -5.72347059  energy(sigma->0) =       -5.74258008


--------------------------------------------------------------------------------------------------------




----------------------------------------- Iteration    1(  18)  ---------------------------------------


    POTLOK:  cpu time    2.1792: real time    2.1794
    SETDIJ:  cpu time    0.0181: real time    0.0181
     EDDAV:  cpu time    3.6931: real time    3.6936
       DOS:  cpu time    0.0085: real time    0.0085
    CHARGE:  cpu time    0.1779: real time    0.1779
    MIXING:  cpu time    0.0044: real time    0.0044
    --------------------------------------------
      LOOP:  cpu time    6.0830: real time    6.1357

 eigenvalue-minimisations  :  1808
 total energy-change (2. order) :-0.1031228E-01  (-0.1947040E-03)
 number of electron      19.9999997 magnetization       0.0079020
 augmentation part       -0.0733538 magnetization       0.0076116

 Broyden mixing:
  rms(total) = 0.81081E-02    rms(broyden)= 0.81081E-02
  rms(prec ) = 0.88655E-02
  weight for this iteration     100.00

 eigenvalues of (default mixing * dielectric matrix)
  average eigenvalue GAMMA=   2.1645
 10.4260  5.3991  2.7875  2.0098  1.9237  0.2946  1.0544  0.8612  0.7994  0.6710
  0.6710  0.6202  0.6202

 Free energy of the ion-electron system (eV)
  ---------------------------------------------------
  alpha Z        PSCENC =         6.95023140
  Ewald energy   TEWEN  =      2243.80739507
  -Hartree energ DENC   =     -3220.17314349
  -exchange      EXHF   =         0.00000000
  -V(xc)+E(xc)   XCENC  =      -221.04121274
  PAW double counting   =      1368.70074880    -1104.38020442
  entropy T*S    EENTRO =        -0.03820182
  eigenvalues    EBANDS =      -118.21100295
  atomic energy  EATOM  =      1038.61338829
  Solvation  Ediel_sol  =         0.00000000
  ---------------------------------------------------
  free energy    TOTEN  =        -5.77200186 eV

  energy without entropy =       -5.73380003  energy(sigma->0) =       -5.75290094


--------------------------------------------------------------------------------------------------------




----------------------------------------- Iteration    1(  19)  ---------------------------------------


    POTLOK:  cpu time    2.1815: real time    2.1818
    SETDIJ:  cpu time    0.0167: real time    0.0167
     EDDAV:  cpu time    3.8488: real time    3.8494
       DOS:  cpu time    0.0086: real time    0.0086
    CHARGE:  cpu time    0.1788: real time    0.1788
    MIXING:  cpu time    0.0042: real time    0.0042
    --------------------------------------------
      LOOP:  cpu time    6.2402: real time    6.2496

 eigenvalue-minimisations  :  1936
 total energy-change (2. order) :-0.4226029E-02  (-0.1331666E-03)
 number of electron      19.9999997 magnetization       0.0048010
 augmentation part       -0.0735237 magnetization       0.0041378

 Broyden mixing:
  rms(total) = 0.39782E-02    rms(broyden)= 0.39782E-02
  rms(prec ) = 0.43918E-02
  weight for this iteration     100.00

 eigenvalues of (default mixing * dielectric matrix)
  average eigenvalue GAMMA=   2.1756
 10.5037  5.8889  2.9632  2.1754  2.1754  1.2448  0.2946  0.9999  0.8947  0.7178
  0.7178  0.6342  0.6342  0.6142

 Free energy of the ion-electron system (eV)
  ---------------------------------------------------
  alpha Z        PSCENC =         6.95023140
  Ewald energy   TEWEN  =      2243.80739507
  -Hartree energ DENC   =     -3219.88123495
  -exchange      EXHF   =         0.00000000
  -V(xc)+E(xc)   XCENC  =      -221.04825769
  PAW double counting   =      1368.24580986    -1103.91941263
  entropy T*S    EENTRO =        -0.03814874
  eigenvalues    EBANDS =      -118.50599851
  atomic energy  EATOM  =      1038.61338829
  Solvation  Ediel_sol  =         0.00000000
  ---------------------------------------------------
  free energy    TOTEN  =        -5.77622788 eV

  energy without entropy =       -5.73807915  energy(sigma->0) =       -5.75715351


--------------------------------------------------------------------------------------------------------




----------------------------------------- Iteration    1(  20)  ---------------------------------------


    POTLOK:  cpu time    2.1788: real time    2.1790
    SETDIJ:  cpu time    0.0178: real time    0.0178
     EDDAV:  cpu time    4.2922: real time    4.2937
       DOS:  cpu time    0.0084: real time    0.0084
    CHARGE:  cpu time    0.1771: real time    0.1771
    MIXING:  cpu time    0.0044: real time    0.0044
    --------------------------------------------
      LOOP:  cpu time    6.6806: real time    6.6928

 eigenvalue-minimisations  :  2136
 total energy-change (2. order) : 0.1426058E-02  (-0.4183959E-04)
 number of electron      19.9999997 magnetization       0.0039586
 augmentation part       -0.0741076 magnetization       0.0032556

 Broyden mixing:
  rms(total) = 0.19135E-02    rms(broyden)= 0.19135E-02
  rms(prec ) = 0.20608E-02
  weight for this iteration     100.00

 eigenvalues of (default mixing * dielectric matrix)
  average eigenvalue GAMMA=   2.1222
 10.5226  6.0161  3.0751  2.1979  2.1979  1.4160  0.2946  1.0612  0.8729  0.8729
  0.7134  0.7134  0.6554  0.6119  0.6119

 Free energy of the ion-electron system (eV)
  ---------------------------------------------------
  alpha Z        PSCENC =         6.95023140
  Ewald energy   TEWEN  =      2243.80739507
  -Hartree energ DENC   =     -3219.68842657
  -exchange      EXHF   =         0.00000000
  -V(xc)+E(xc)   XCENC  =      -221.05159702
  PAW double counting   =      1368.13937544    -1103.81085329
  entropy T*S    EENTRO =        -0.03810504
  eigenvalues    EBANDS =      -118.69621012
  atomic energy  EATOM  =      1038.61338829
  Solvation  Ediel_sol  =         0.00000000
  ---------------------------------------------------
  free energy    TOTEN  =        -5.77480183 eV

  energy without entropy =       -5.73669679  energy(sigma->0) =       -5.75574931


--------------------------------------------------------------------------------------------------------




----------------------------------------- Iteration    1(  21)  ---------------------------------------


    POTLOK:  cpu time    2.1789: real time    2.1789
    SETDIJ:  cpu time    0.0175: real time    0.0175
     EDDAV:  cpu time    3.7466: real time    3.7482
       DOS:  cpu time    0.0086: real time    0.0086
    CHARGE:  cpu time    0.1809: real time    0.1809
    MIXING:  cpu time    0.0047: real time    0.0047
    --------------------------------------------
      LOOP:  cpu time    6.1387: real time    6.1494

 eigenvalue-minimisations  :  1840
 total energy-change (2. order) :-0.8652614E-03  (-0.1861586E-04)
 number of electron      19.9999997 magnetization       0.0021350
 augmentation part       -0.0742328 magnetization       0.0016511

 Broyden mixing:
  rms(total) = 0.12062E-02    rms(broyden)= 0.12062E-02
  rms(prec ) = 0.13637E-02
  weight for this iteration     100.00

 eigenvalues of (default mixing * dielectric matrix)
  average eigenvalue GAMMA=   2.1077
 10.5875  6.4455  3.0324  2.2125  2.2125  1.8247  0.2946  1.0181  1.0181  0.8573
  0.8573  0.7859  0.6967  0.6506  0.6145  0.6145

 Free energy of the ion-electron system (eV)
  ---------------------------------------------------
  alpha Z        PSCENC =         6.95023140
  Ewald energy   TEWEN  =      2243.80739507
  -Hartree energ DENC   =     -3219.64758534
  -exchange      EXHF   =         0.00000000
  -V(xc)+E(xc)   XCENC  =      -221.05238705
  PAW double counting   =      1368.25128976    -1103.92358344
  entropy T*S    EENTRO =        -0.03810633
  eigenvalues    EBANDS =      -118.73630945
  atomic energy  EATOM  =      1038.61338829
  Solvation  Ediel_sol  =         0.00000000
  ---------------------------------------------------
  free energy    TOTEN  =        -5.77566709 eV

  energy without entropy =       -5.73756075  energy(sigma->0) =       -5.75661392


--------------------------------------------------------------------------------------------------------




----------------------------------------- Iteration    1(  22)  ---------------------------------------


    POTLOK:  cpu time    2.1821: real time    2.1822
    SETDIJ:  cpu time    0.0176: real time    0.0176
     EDDAV:  cpu time    3.7622: real time    3.7623
       DOS:  cpu time    0.0089: real time    0.0089
    CHARGE:  cpu time    0.1780: real time    0.1781
    MIXING:  cpu time    0.0048: real time    0.0048
    --------------------------------------------
      LOOP:  cpu time    6.1553: real time    6.1655

 eigenvalue-minimisations  :  1776
 total energy-change (2. order) :-0.6069645E-03  (-0.3302823E-04)
 number of electron      19.9999997 magnetization       0.0014012
 augmentation part       -0.0742800 magnetization       0.0012401

 Broyden mixing:
  rms(total) = 0.33358E-03    rms(broyden)= 0.33358E-03
  rms(prec ) = 0.48069E-03
  weight for this iteration     100.00

 eigenvalues of (default mixing * dielectric matrix)
  average eigenvalue GAMMA=   2.1076
 10.6249  6.5629  3.0918  2.6930  2.1992  2.1992  1.2425  0.2946  1.0373  0.9118
  0.8397  0.8397  0.7171  0.7171  0.6317  0.6136  0.6136

 Free energy of the ion-electron system (eV)
  ---------------------------------------------------
  alpha Z        PSCENC =         6.95023140
  Ewald energy   TEWEN  =      2243.80739507
  -Hartree energ DENC   =     -3219.54820888
  -exchange      EXHF   =         0.00000000
  -V(xc)+E(xc)   XCENC  =      -221.05393486
  PAW double counting   =      1368.26090539    -1103.93300090
  entropy T*S    EENTRO =        -0.03810896
  eigenvalues    EBANDS =      -118.83494061
  atomic energy  EATOM  =      1038.61338829
  Solvation  Ediel_sol  =         0.00000000
  ---------------------------------------------------
  free energy    TOTEN  =        -5.77627405 eV

  energy without entropy =       -5.73816509  energy(sigma->0) =       -5.75721957


--------------------------------------------------------------------------------------------------------




----------------------------------------- Iteration    1(  23)  ---------------------------------------


    POTLOK:  cpu time    2.1951: real time    2.1954
    SETDIJ:  cpu time    0.0176: real time    0.0176
     EDDAV:  cpu time    4.2100: real time    4.2113
       DOS:  cpu time    0.0088: real time    0.0088
    CHARGE:  cpu time    0.1817: real time    0.1817
    MIXING:  cpu time    0.0047: real time    0.0047
    --------------------------------------------
      LOOP:  cpu time    6.6195: real time    6.6221

 eigenvalue-minimisations  :  2144
 total energy-change (2. order) :-0.2029488E-04  (-0.6026301E-05)
 number of electron      19.9999997 magnetization       0.0013679
 augmentation part       -0.0742701 magnetization       0.0012729

 Broyden mixing:
  rms(total) = 0.51178E-03    rms(broyden)= 0.51178E-03
  rms(prec ) = 0.59081E-03
  weight for this iteration     100.00

 eigenvalues of (default mixing * dielectric matrix)
  average eigenvalue GAMMA=   2.0709
 10.6102  6.3833  3.5930  2.6173  2.2410  2.2410  1.5301  0.2946  1.0693  0.8735
  0.8735  0.8537  0.8537  0.6947  0.6947  0.6098  0.6098  0.6340

 Free energy of the ion-electron system (eV)
  ---------------------------------------------------
  alpha Z        PSCENC =         6.95023140
  Ewald energy   TEWEN  =      2243.80739507
  -Hartree energ DENC   =     -3219.50831090
  -exchange      EXHF   =         0.00000000
  -V(xc)+E(xc)   XCENC  =      -221.05406204
  PAW double counting   =      1368.28768841    -1103.96006887
  entropy T*S    EENTRO =        -0.03811653
  eigenvalues    EBANDS =      -118.87443918
  atomic energy  EATOM  =      1038.61338829
  Solvation  Ediel_sol  =         0.00000000
  ---------------------------------------------------
  free energy    TOTEN  =        -5.77629435 eV

  energy without entropy =       -5.73817782  energy(sigma->0) =       -5.75723608


--------------------------------------------------------------------------------------------------------




----------------------------------------- Iteration    1(  24)  ---------------------------------------


    POTLOK:  cpu time    2.1806: real time    2.1808
    SETDIJ:  cpu time    0.0175: real time    0.0175
     EDDAV:  cpu time    4.0589: real time    4.0595
       DOS:  cpu time    0.0086: real time    0.0086
    CHARGE:  cpu time    0.1798: real time    0.1798
    MIXING:  cpu time    0.0048: real time    0.0048
    --------------------------------------------
      LOOP:  cpu time    6.4519: real time    6.4688

 eigenvalue-minimisations  :  2048
 total energy-change (2. order) :-0.2147418E-04  (-0.4249147E-05)
 number of electron      19.9999997 magnetization       0.0008975
 augmentation part       -0.0743028 magnetization       0.0007479

 Broyden mixing:
  rms(total) = 0.63119E-03    rms(broyden)= 0.63119E-03
  rms(prec ) = 0.68831E-03
  weight for this iteration     100.00

 eigenvalues of (default mixing * dielectric matrix)
  average eigenvalue GAMMA=   2.0821
 10.5982  6.1691  4.5094  2.5524  2.5524  2.0650  2.0650  0.2946  1.0475  0.9710
  0.9710  0.9011  0.9011  0.7275  0.7275  0.6447  0.6447  0.6088  0.6088

 Free energy of the ion-electron system (eV)
  ---------------------------------------------------
  alpha Z        PSCENC =         6.95023140
  Ewald energy   TEWEN  =      2243.80739507
  -Hartree energ DENC   =     -3219.47460064
  -exchange      EXHF   =         0.00000000
  -V(xc)+E(xc)   XCENC  =      -221.05423019
  PAW double counting   =      1368.28132552    -1103.95372427
  entropy T*S    EENTRO =        -0.03812475
  eigenvalues    EBANDS =      -118.90797627
  atomic energy  EATOM  =      1038.61338829
  Solvation  Ediel_sol  =         0.00000000
  ---------------------------------------------------
  free energy    TOTEN  =        -5.77631582 eV

  energy without entropy =       -5.73819107  energy(sigma->0) =       -5.75725345


--------------------------------------------------------------------------------------------------------




----------------------------------------- Iteration    1(  25)  ---------------------------------------


    POTLOK:  cpu time    2.1760: real time    2.1766
    SETDIJ:  cpu time    0.0178: real time    0.0178
     EDDAV:  cpu time    3.9776: real time    3.9776
       DOS:  cpu time    0.0088: real time    0.0089
    CHARGE:  cpu time    0.1834: real time    0.1834
    MIXING:  cpu time    0.0051: real time    0.0051
    --------------------------------------------
      LOOP:  cpu time    6.3705: real time    6.3767

 eigenvalue-minimisations  :  1896
 total energy-change (2. order) :-0.7894447E-04  (-0.3523788E-05)
 number of electron      19.9999997 magnetization       0.0003612
 augmentation part       -0.0743518 magnetization       0.0002333

 Broyden mixing:
[...]
  band No.  band energies     occupation 
      1     -13.3973      1.00000
      2     -11.9631      1.00000
      3      -5.8070      1.00000
      4      -5.5537      1.00000
      5      -5.4504      1.00000
      6      -4.7128      1.00000
      7      -4.6034      1.00000
      8      -3.7911      1.00000
      9      -1.9217      0.97390
     10      -1.6143      0.40823
     11      -0.5402      0.00000
     12       0.3835      0.00000
     13       0.6014      0.00000
     14       2.2564      0.00000
     15       2.4390      0.00000
     16       2.9321      0.00000

 k-point    17 :       0.2000    0.1333    0.0000
  band No.  band energies     occupation 
      1     -13.1387      1.00000
      2     -11.9781      1.00000
      3      -5.7975      1.00000
      4      -5.5595      1.00000
      5      -5.3767      1.00000
      6      -4.8371      1.00000
      7      -4.6315      1.00000
      8      -4.0075      1.00000
      9      -2.3481      1.00000
     10      -2.0694      0.99858
     11      -0.7069      0.00000
     12       0.1764      0.00000
     13       0.6089      0.00000
     14       2.5823      0.00000
     15       2.7008      0.00000
     16       3.2586      0.00000

 k-point    18 :       0.2667    0.1333    0.0000
  band No.  band energies     occupation 
      1     -12.8491      1.00000
      2     -12.0081      1.00000
      3      -6.0428      1.00000
      4      -5.5813      1.00000
      5      -5.2752      1.00000
      6      -4.8179      1.00000
      7      -4.5616      1.00000
      8      -4.1145      1.00000
      9      -2.8664      1.00000
     10      -2.3487      1.00000
     11      -1.1912      0.00063
     12       0.2483      0.00000
     13       0.7952      0.00000
     14       2.6522      0.00000
     15       3.0570      0.00000
     16       3.2155      0.00000

 k-point    19 :       0.3333    0.1333    0.0000
  band No.  band energies     occupation 
      1     -12.5662      1.00000
      2     -12.0634      1.00000
      3      -6.4363      1.00000
      4      -5.5095      1.00000
      5      -5.1562      1.00000
      6      -4.7267      1.00000
      7      -4.4110      1.00000
      8      -4.1768      1.00000
      9      -3.3646      1.00000
     10      -2.5011      1.00000
     11      -1.6434      0.48956
     12       0.4142      0.00000
     13       0.9147      0.00000
     14       2.3982      0.00000
     15       3.4305      0.00000
     16       3.5749      0.00000

 k-point    20 :       0.4000    0.1333    0.0000
  band No.  band energies     occupation 
      1     -12.3319      1.00000
      2     -12.1609      1.00000
      3      -6.6850      1.00000
      4      -5.4729      1.00000
      5      -5.0407      1.00000
      6      -4.6365      1.00000
      7      -4.2788      1.00000
      8      -4.1802      1.00000
      9      -3.7736      1.00000
     10      -2.5064      1.00000
     11      -1.9538      0.98494
     12       0.6232      0.00000
     13       0.8330      0.00000
     14       2.2965      0.00000
     15       3.7046      0.00000
     16       4.1324      0.00000

 k-point    21 :       0.2000    0.2000    0.0000
  band No.  band energies     occupation 
      1     -12.8781      1.00000
      2     -11.9991      1.00000
      3      -5.8256      1.00000
      4      -5.7164      1.00000
      5      -5.3062      1.00000
      6      -4.7690      1.00000
      7      -4.6788      1.00000
      8      -4.1522      1.00000
      9      -2.6413      1.00000
     10      -2.5270      1.00000
     11      -0.9613      0.00000
     12       0.0154      0.00000
     13       0.6916      0.00000
     14       2.8949      0.00000
     15       2.9498      0.00000
     16       3.4539      0.00000

 k-point    22 :       0.2667    0.2000    0.0000
  band No.  band energies     occupation 
      1     -12.6103      1.00000
      2     -12.0336      1.00000
      3      -6.1736      1.00000
      4      -5.6341      1.00000
      5      -5.2490      1.00000
      6      -4.7435      1.00000
      7      -4.6102      1.00000
      8      -4.2062      1.00000
      9      -3.0579      1.00000
     10      -2.6629      1.00000
     11      -1.4200      0.05413
     12       0.0097      0.00000
     13       0.8490      0.00000
     14       2.9108      0.00000
     15       3.2649      0.00000
     16       3.6029      0.00000

 k-point    23 :       0.3333    0.2000    0.0000
  band No.  band energies     occupation 
      1     -12.3762      1.00000
      2     -12.0920      1.00000
      3      -6.4650      1.00000
      4      -5.5654      1.00000
      5      -5.2198      1.00000
      6      -4.6940      1.00000
      7      -4.5241      1.00000
      8      -4.2222      1.00000
      9      -3.3896      1.00000
     10      -2.6231      1.00000
     11      -1.8714      0.94357
     12       0.1737      0.00000
     13       0.7979      0.00000
     14       2.7942      0.00000
     15       3.5919      0.00000
     16       4.0893      0.00000

 k-point    24 :       0.4000    0.2000    0.0000
  band No.  band energies     occupation 
      1     -12.2312      1.00000
      2     -12.1705      1.00000
      3      -6.5770      1.00000
      4      -5.5416      1.00000
      5      -5.2091      1.00000
      6      -4.6471      1.00000
      7      -4.5112      1.00000
      8      -4.2077      1.00000
      9      -3.5379      1.00000
     10      -2.5137      1.00000
     11      -2.1174      0.99956
     12       0.3158      0.00000
     13       0.6784      0.00000
     14       2.7606      0.00000
     15       3.9806      0.00000
     16       4.1536      0.00000

 k-point    25 :       0.2667    0.2667    0.0000
  band No.  band energies     occupation 
      1     -12.3919      1.00000
      2     -12.0674      1.00000
      3      -6.3155      1.00000
      4      -5.6398      1.00000
      5      -5.3424      1.00000
      6      -4.7081      1.00000
      7      -4.6036      1.00000
      8      -4.2287      1.00000
      9      -3.1397      1.00000
     10      -2.7708      1.00000
     11      -1.8290      0.90071
     12      -0.0064      0.00000
     13       0.7939      0.00000
     14       3.0902      0.00000
     15       3.3637      0.00000
     16       4.1047      0.00000

 k-point    26 :       0.3333    0.2667    0.0000
  band No.  band energies     occupation 
      1     -12.2317      1.00000
      2     -12.1181      1.00000
      3      -6.4134      1.00000
      4      -5.6080      1.00000
      5      -5.4706      1.00000
      6      -4.6579      1.00000
      7      -4.5845      1.00000
      8      -4.2506      1.00000
      9      -3.1611      1.00000
     10      -2.6472      1.00000
     11      -2.2624      0.99999
     12       0.1596      0.00000
     13       0.5974      0.00000
     14       2.9847      0.00000
     15       3.8830      0.00000
     16       4.5351      0.00000

 k-point    27 :       0.3333    0.3333    0.0000
  band No.  band energies     occupation 
      1     -12.1530      1.00000
      2     -12.1530      1.00000
      3      -6.3619      1.00000
      4      -5.6220      1.00000
      5      -5.6220      1.00000
      6      -4.6158      1.00000
      7      -4.6158      1.00000
      8      -4.2729      1.00000
      9      -2.8530      1.00000
     10      -2.6376      1.00000
     11      -2.6376      1.00000
     12       0.3463      0.00000
     13       0.3463      0.00000
     14       2.9789      0.00000
     15       4.4141      0.00000
     16       4.4808      0.00000


--------------------------------------------------------------------------------------------------------


 soft charge-density along one line, spin component           1
         0         1         2         3         4         5         6         7         8         9
 total charge-density along one line
 
 soft charge-density along one line, spin component           2
         0         1         2         3         4         5         6         7         8         9
 total charge-density along one line
 
 pseudopotential strength for first ion, spin component:           1
 51.095  58.352   0.000  -0.127  -0.000   0.000  -0.107  -0.000
 58.352  66.660   0.000  -0.145  -0.000   0.000  -0.121  -0.000
  0.000   0.000  10.730   0.000   0.000   9.129   0.000   0.000
 -0.127  -0.145   0.000  10.731  -0.000   0.000   9.130  -0.000
 -0.000  -0.000   0.000  -0.000  10.730   0.000  -0.000   9.129
  0.000   0.000   9.129   0.000   0.000   7.847   0.000   0.000
 -0.107  -0.121   0.000   9.130  -0.000   0.000   7.848  -0.000
 -0.000  -0.000   0.000  -0.000   9.129   0.000  -0.000   7.847
  0.000   0.000  -0.002   0.000   0.000  -0.002   0.000   0.000
  0.000   0.000  -0.025   0.000   0.000  -0.021   0.000   0.000
  0.002   0.002  -0.000  -0.025   0.000  -0.000  -0.021   0.000
 -0.000  -0.000   0.000  -0.000  -0.025   0.000  -0.000  -0.021
 -0.000  -0.000  -0.000   0.000   0.002  -0.000   0.000   0.002
 pseudopotential strength for first ion, spin component:           2
 51.095  58.352   0.000  -0.127  -0.000   0.000  -0.107  -0.000
 58.352  66.660   0.000  -0.145  -0.000   0.000  -0.121  -0.000
  0.000   0.000  10.730   0.000   0.000   9.129   0.000   0.000
 -0.127  -0.145   0.000  10.731  -0.000   0.000   9.130  -0.000
 -0.000  -0.000   0.000  -0.000  10.730   0.000  -0.000   9.129
  0.000   0.000   9.129   0.000   0.000   7.847   0.000   0.000
 -0.107  -0.121   0.000   9.130  -0.000   0.000   7.848  -0.000
 -0.000  -0.000   0.000  -0.000   9.129   0.000  -0.000   7.847
  0.000   0.000  -0.002   0.000   0.000  -0.002   0.000   0.000
  0.000   0.000  -0.025   0.000   0.000  -0.021   0.000   0.000
  0.002   0.002  -0.000  -0.025   0.000  -0.000  -0.021   0.000
 -0.000  -0.000   0.000  -0.000  -0.025   0.000  -0.000  -0.021
  0.000   0.000  -0.000   0.000   0.002  -0.000   0.000   0.002
 total augmentation occupancy for first ion, spin component:           1
  4.010  -1.896   0.000  -0.630   0.000  -0.000  -0.313   0.000   0.000   0.000  -0.065   0.000   0.000
 -1.896   1.761  -0.000   0.702   0.000   0.000   0.313   0.000   0.000   0.000   0.063   0.000  -0.000
  0.000  -0.000   0.637   0.000  -0.000   0.176  -0.000   0.000  -0.069  -0.086  -0.000   0.000  -0.000
 -0.630   0.702   0.000   0.700  -0.000  -0.000   0.148   0.000  -0.000   0.000   0.004  -0.000  -0.000
  0.000   0.000   0.000   0.000   0.637  -0.000   0.000   0.176  -0.000   0.000  -0.000  -0.086   0.069
 -0.000   0.000   0.176  -0.000  -0.000   0.129   0.000  -0.000  -0.026  -0.054  -0.000   0.000  -0.000
 -0.313   0.313   0.000   0.148   0.000   0.000   0.104   0.000   0.000   0.000  -0.019   0.000   0.000
  0.000   0.000  -0.000   0.000   0.176  -0.000   0.000   0.129  -0.000   0.000  -0.000  -0.054   0.026
  0.000   0.000  -0.069  -0.000   0.000  -0.026   0.000  -0.000   0.044   0.009   0.000   0.000   0.000
  0.000   0.000  -0.086   0.000   0.000  -0.054   0.000   0.000   0.009   0.042   0.000  -0.000  -0.000
 -0.065   0.063  -0.000   0.004  -0.000  -0.000  -0.019  -0.000   0.000   0.000   0.026   0.000  -0.000
 -0.000   0.000   0.000   0.000  -0.086   0.000   0.000  -0.054  -0.000   0.000   0.000   0.042  -0.009
  0.000  -0.000  -0.000  -0.000   0.069  -0.000   0.000   0.026   0.000  -0.000  -0.000  -0.009   0.044
 total augmentation occupancy for first ion, spin component:           2
 -0.000   0.000  -0.000   0.000   0.000   0.000   0.000   0.000  -0.000   0.000  -0.000  -0.000   0.000
  0.000  -0.000   0.000  -0.000  -0.000   0.000   0.000  -0.000   0.000   0.000   0.000  -0.000  -0.000
  0.000   0.000  -0.000  -0.000   0.000   0.000   0.000   0.000   0.000  -0.000  -0.000   0.000   0.000
  0.000  -0.000  -0.000  -0.000  -0.000  -0.000   0.000   0.000  -0.000   0.000  -0.000  -0.000   0.000
  0.000   0.000   0.000   0.000  -0.000  -0.000  -0.000   0.000   0.000   0.000   0.000  -0.000  -0.000
 -0.000   0.000   0.000  -0.000  -0.000   0.000  -0.000   0.000  -0.000   0.000  -0.000  -0.000   0.000
  0.000   0.000  -0.000   0.000   0.000  -0.000   0.000   0.000   0.000  -0.000   0.000   0.000  -0.000
  0.000  -0.000   0.000   0.000   0.000  -0.000   0.000   0.000   0.000   0.000  -0.000   0.000   0.000
 -0.000   0.000   0.000  -0.000  -0.000  -0.000   0.000   0.000   0.000  -0.000   0.000   0.000  -0.000
  0.000   0.000  -0.000   0.000   0.000   0.000   0.000   0.000  -0.000  -0.000   0.000   0.000  -0.000
 -0.000   0.000  -0.000  -0.000   0.000   0.000   0.000  -0.000  -0.000   0.000   0.000  -0.000  -0.000
 -0.000  -0.000   0.000  -0.000  -0.000   0.000   0.000   0.000   0.000   0.000  -0.000  -0.000   0.000
  0.000  -0.000   0.000   0.000  -0.000  -0.000  -0.000   0.000  -0.000  -0.000  -0.000   0.000   0.000


------------------------ aborting loop because EDIFF is reached ----------------------------------------


 


 total charge     
 
# of ion     s       p       d       tot
----------------------------------------
  1        1.721   1.881   0.101   3.703
  2        1.721   1.881   0.101   3.703
  3        0.724   0.490   8.175   9.389
------------------------------------------------
tot        4.165   4.253   8.378  16.796
 


 magnetization (x)
 
# of ion     s       p       d       tot
----------------------------------------
  1       -0.000  -0.000   0.000  -0.000
  2       -0.000  -0.000   0.000  -0.000
  3       -0.000  -0.000  -0.000  -0.000
------------------------------------------------
tot       -0.000  -0.000  -0.000  -0.000
 
    CHARGE:  cpu time    0.1782: real time    0.1791
    FORLOC:  cpu time    0.0031: real time    0.0031
    FORNL :  cpu time    0.2345: real time    0.2344
    STRESS:  cpu time    0.9140: real time    0.9141
    FORCOR:  cpu time    2.1768: real time    2.1768
    FORHAR:  cpu time    0.0128: real time    0.0128
    MIXING:  cpu time    0.0061: real time    0.0061
    OFIELD:  cpu time    0.0001: real time    0.0000

  FORCE on cell =-STRESS in cart. coord.  units (eV):
  Direction    XX          YY          ZZ          XY          YZ          ZX
  --------------------------------------------------------------------------------------
  Alpha Z     6.84044     6.84044     6.84044
  Ewald    2906.20115  2906.20166 -3581.99125    -0.00041    -0.00029     0.00022
  Hartree  3089.73175  3089.73166 -2975.06833     0.00008     0.00005    -0.00002
  E(xc)     -91.17756   -91.17756   -90.47455     0.00001     0.00001    -0.00001
  Local   -6294.22442 -6294.22463  6255.19258     0.00022     0.00016    -0.00013
  n-local   167.36227   154.68901   158.76117     3.37926     1.58550     1.03483
  augment    -1.45228    -1.45229    -0.41738     0.00001    -0.00000     0.00000
  Kinetic   225.88243   220.22785   227.14703     1.30496     0.58436     1.04405
  Fock        0.00000     0.00000     0.00000     0.00000     0.00000     0.00000
  -------------------------------------------------------------------------------------
  Total      -0.00004    -0.00004    -0.01030     0.00000    -0.00000    -0.00000
  in kB      -0.00019    -0.00019    -0.04741     0.00000    -0.00000    -0.00000
  external pressure =       -0.02 kB  Pullay stress =        0.00 kB


 VOLUME and BASIS-vectors are now :
 -----------------------------------------------------------------------------
  energy-cutoff  :      500.00
  volume of cell :      348.09
      direct lattice vectors                 reciprocal lattice vectors
     3.631374852 -2.096574861  0.000000000     0.275377795  0.000000000  0.000000000
    -0.000000000  4.193149723  0.000000000     0.137688898  0.238484210  0.000000000
     0.000000000  0.000000000 22.860029000     0.000000000  0.000000000  0.043744476

  length of vectors
     4.193150303  4.193149723 22.860029000     0.275377795  0.275377833  0.043744476


 FORCES acting on ions
    electron-ion (+dipol)            ewald-force                    non-local-force                 convergence-correction
 -----------------------------------------------------------------------------------------------
   0.201E-03 -.368E-03 -.303E+03   0.795E-04 -.107E-03 0.308E+03   0.304E-19 0.867E-17 -.440E+01   -.754E-11 0.118E-10 0.856E-05
   -.195E-03 0.363E-03 0.303E+03   -.795E-04 0.107E-03 -.308E+03   -.304E-19 -.694E-17 0.440E+01   0.756E-11 -.119E-10 -.856E-05
   0.223E-06 0.187E-06 0.949E-05   0.430E-13 -.149E-13 0.128E-10   -.462E-25 -.331E-23 0.678E-20   -.300E-13 0.529E-13 -.450E-09
 -----------------------------------------------------------------------------------------------
   0.644E-05 -.479E-05 0.474E-04   -.961E-14 0.237E-14 0.000E+00   -.274E-26 0.173E-17 0.888E-15   -.989E-14 0.375E-13 -.790E-09
 
 
 POSITION                                       TOTAL-FORCE (eV/Angst)
 -----------------------------------------------------------------------------------
      1.21046      2.09658      2.80717         0.000000     -0.000000     -0.000002
      2.42092     -0.00000      0.05285        -0.000000      0.000000      0.000002
     -0.00000     -0.00000      1.43001         0.000000     -0.000000     -0.000000
 -----------------------------------------------------------------------------------
    total drift:                                0.000006     -0.000005      0.000047


--------------------------------------------------------------------------------------------------------



  FREE ENERGIE OF THE ION-ELECTRON SYSTEM (eV)
  ---------------------------------------------------
  free  energy   TOTEN  =        -5.78436227 eV

  energy  without entropy=       -5.74712348  energy(sigma->0) =       -5.76574288
 
 d Force = 0.1285568E-05[ 0.807E-09, 0.257E-05]  d Energy = 0.8755863E-05-0.747E-05
 d Force =-0.1259581E+00[-0.126E+00,-0.126E+00]  d Ewald  =-0.1234395E+01 0.111E+01


--------------------------------------------------------------------------------------------------------


    POTLOK:  cpu time    2.1975: real time    2.1977


--------------------------------------------------------------------------------------------------------




--------------------------------------------------------------------------------------------------------


  
 reached required accuracy - stopping structural energy minimisation
     LOOP+:  cpu time  174.7345: real time  175.2352
    4ORBIT:  cpu time    0.0000: real time    0.0000
 


 total charge     
 
# of ion     s       p       d       tot
----------------------------------------
  1        1.721   1.881   0.101   3.703
  2        1.721   1.881   0.101   3.703
  3        0.724   0.490   8.175   9.389
------------------------------------------------
tot        4.165   4.253   8.378  16.796
 


 magnetization (x)
 
# of ion     s       p       d       tot
----------------------------------------
  1       -0.000  -0.000   0.000  -0.000
  2       -0.000  -0.000   0.000  -0.000
  3       -0.000  -0.000  -0.000  -0.000
------------------------------------------------
tot       -0.000  -0.000  -0.000  -0.000
 

 total amount of memory used by VASP on root node    60092. kBytes
========================================================================

   base      :      30000. kBytes
   nonl-proj :      17212. kBytes
   fftplans  :       2532. kBytes
   grid      :       6474. kBytes
   one-center:         31. kBytes
   wavefun   :       3843. kBytes
 
  
  
 General timing and accounting informations for this job:
 ========================================================
  
                  Total CPU time used (sec):     2967.475
                            User time (sec):     2321.039
                          System time (sec):      646.436
                         Elapsed time (sec):     2975.619
  
                   Maximum memory used (kb):      205396.
                   Average memory used (kb):           0.
  
                          Minor page faults:      8753577
                          Major page faults:            4
                 Voluntary context switches:         8684
