       N       E                     dE             d eps       ncg     rms          rms(c)
DAV:   1     0.463611285328E+03    0.46361E+03   -0.20743E+04  8416   0.107E+03
DAV:   2     0.420776087702E+02   -0.42153E+03   -0.40670E+03 10120   0.229E+02
DAV:   3    -0.113528337201E+02   -0.53430E+02   -0.53116E+02 10464   0.741E+01
DAV:   4    -0.153634239342E+02   -0.40106E+01   -0.39865E+01 12024   0.178E+01
DAV:   5    -0.154645229259E+02   -0.10110E+00   -0.10096E+00  9904   0.289E+00    0.180E+01
DAV:   6    -0.138707594711E+02    0.15938E+01   -0.36821E+00  8704   0.754E+00    0.885E+00
DAV:   7    -0.140695711588E+02   -0.19881E+00   -0.73372E-01  9160   0.350E+00    0.588E+00
DAV:   8    -0.141359755852E+02   -0.66404E-01   -0.98356E-02  9216   0.130E+00    0.304E+00
DAV:   9    -0.142342540350E+02   -0.98278E-01   -0.24838E-02  8584   0.853E-01    0.243E+00
DAV:  10    -0.144440970011E+02   -0.20984E+00   -0.33559E-02  7984   0.859E-01    0.187E+00
DAV:  11    -0.146584226371E+02   -0.21433E+00   -0.40214E-02  9456   0.719E-01    0.129E+00
DAV:  12    -0.148140154257E+02   -0.15559E+00   -0.39346E-02  8336   0.642E-01    0.662E-01
DAV:  13    -0.148626199015E+02   -0.48604E-01   -0.13458E-02  8056   0.430E-01    0.279E-01
DAV:  14    -0.148673070990E+02   -0.46872E-02   -0.34429E-03  9192   0.227E-01    0.110E-01
DAV:  15    -0.148665979767E+02    0.70912E-03   -0.79340E-04  8320   0.146E-01    0.624E-02
DAV:  16    -0.148663264504E+02    0.27153E-03   -0.60991E-04  7552   0.118E-01    0.333E-02
DAV:  17    -0.148663793238E+02   -0.52873E-04   -0.41671E-04  7736   0.796E-02    0.124E-02
DAV:  18    -0.148668278665E+02   -0.44854E-03   -0.96371E-05  8776   0.384E-02    0.862E-03
DAV:  19    -0.148672070771E+02   -0.37921E-03   -0.61420E-05  8392   0.292E-02    0.563E-03
DAV:  20    -0.148676919994E+02   -0.48492E-03   -0.12175E-04  7672   0.307E-02    0.439E-03
DAV:  21    -0.148678129648E+02   -0.12097E-03   -0.26948E-05  8208   0.163E-02    0.329E-03
DAV:  22    -0.148679098789E+02   -0.96914E-04   -0.34164E-05  7904   0.142E-02    0.196E-03
DAV:  23    -0.148679812047E+02   -0.71326E-04   -0.46613E-05  7976   0.139E-02    0.171E-03
DAV:  24    -0.148680068225E+02   -0.25618E-04   -0.19902E-06  7824   0.514E-03    0.126E-03
DAV:  25    -0.148680528533E+02   -0.46031E-04   -0.36725E-06  7704   0.505E-03    0.131E-03
DAV:  26    -0.148680742180E+02   -0.21365E-04   -0.95216E-06  7736   0.580E-03    0.154E-03
DAV:  27    -0.148680730770E+02    0.11411E-05   -0.85562E-07  7344   0.285E-03    0.778E-04
DAV:  28    -0.148680831940E+02   -0.10117E-04   -0.54664E-07  6464   0.250E-03    0.167E-04
DAV:  29    -0.148680886040E+02   -0.54100E-05   -0.30154E-06  7568   0.403E-03    0.442E-04
DAV:  30    -0.148680900922E+02   -0.14882E-05   -0.72245E-07  6984   0.246E-03    0.276E-04
DAV:  31    -0.148680927306E+02   -0.26384E-05   -0.60895E-07  6960   0.244E-03    0.480E-05
DAV:  32    -0.148681095481E+02   -0.16818E-04   -0.43383E-06  8024   0.322E-03    0.135E-04
DAV:  33    -0.148683155556E+02   -0.20601E-03   -0.11895E-04  6464   0.259E-03    0.800E-03
DAV:  34    -0.148681064901E+02    0.20907E-03   -0.95230E-02  5648   0.627E-03    0.104E-04
DAV:  35    -0.148681088881E+02   -0.23980E-05   -0.45591E-07  6096   0.175E-03    0.469E-05
DAV:  36    -0.148681076020E+02    0.12861E-05   -0.16657E-07  6008   0.109E-03    0.254E-05
DAV:  37    -0.148681049697E+02    0.26323E-05   -0.40503E-07  5752   0.144E-03    0.193E-05
DAV:  38    -0.148681047387E+02    0.23098E-06   -0.63984E-07  6720   0.166E-03    0.166E-05
DAV:  39    -0.148681057520E+02   -0.10133E-05   -0.93926E-07  6120   0.187E-03    0.194E-05
DAV:  40    -0.148681088219E+02   -0.30700E-05   -0.18205E-06  6472   0.209E-03    0.158E-05
DAV:  41    -0.148681110044E+02   -0.21825E-05   -0.75929E-07  5992   0.161E-03    0.136E-05
DAV:  42    -0.148681122034E+02   -0.11990E-05   -0.15787E-07  6200   0.793E-04    0.140E-05
DAV:  43    -0.148681128024E+02   -0.59895E-06   -0.12273E-07  5416   0.718E-04    0.142E-05
DAV:  44    -0.148681132383E+02   -0.43596E-06   -0.37252E-08  5880   0.415E-04    0.141E-05
DAV:  45    -0.148681155673E+02   -0.23290E-05   -0.66974E-07  5208   0.138E-03    0.134E-05
DAV:  46    -0.148681166048E+02   -0.10375E-05   -0.12357E-07  5840   0.560E-04    0.128E-05
DAV:  47    -0.148681194786E+02   -0.28739E-05   -0.13249E-06  5432   0.933E-04    0.153E-05
DAV:  48    -0.148681215859E+02   -0.21073E-05   -0.19470E-06  5768   0.667E-04    0.592E-05
DAV:  49    -0.148681155156E+02    0.60704E-05   -0.26602E-04  5328   0.152E-03    0.138E-05
DAV:  50    -0.148681154664E+02    0.49202E-07   -0.22723E-07  5256   0.735E-04
   1 F= -.14868115E+02 E0= -.14863618E+02  d E =-.148681E+02  mag=    -0.0000
       N       E                     dE             d eps       ncg     rms          rms(c)
DAV:   1    -0.149005137324E+02   -0.32398E-01   -0.10716E+00  7264   0.513E+00    0.151E+00
DAV:   2    -0.148726126868E+02    0.27901E-01   -0.73220E-02  8432   0.130E+00    0.528E-01
DAV:   3    -0.148584084937E+02    0.14204E-01   -0.18807E-02  9872   0.608E-01    0.257E-01
DAV:   4    -0.148610888942E+02   -0.26804E-02   -0.18645E-03 10952   0.134E-01    0.136E-01
DAV:   5    -0.148649796487E+02   -0.38908E-02   -0.84673E-04 11992   0.111E-01    0.894E-02
DAV:   6    -0.148682657853E+02   -0.32861E-02   -0.17770E-04 11408   0.448E-02    0.368E-02
DAV:   7    -0.148696895581E+02   -0.14238E-02   -0.22088E-05  8976   0.226E-02    0.140E-02
DAV:   8    -0.148703755599E+02   -0.68600E-03   -0.13180E-05 10120   0.170E-02    0.569E-03
DAV:   9    -0.148705786172E+02   -0.20306E-03   -0.51042E-06  8360   0.114E-02    0.186E-03
DAV:  10    -0.148706252340E+02   -0.46617E-04   -0.65521E-07  7856   0.407E-03    0.126E-03
DAV:  11    -0.148706363536E+02   -0.11120E-04   -0.12800E-07  5504   0.143E-03    0.874E-04
DAV:  12    -0.148706883500E+02   -0.51996E-04   -0.72849E-07  6520   0.211E-03    0.391E-04
DAV:  13    -0.148706973719E+02   -0.90220E-05   -0.18220E-07  6904   0.106E-03    0.400E-04
DAV:  14    -0.148706957997E+02    0.15723E-05   -0.12403E-07  5584   0.877E-04    0.256E-04
DAV:  15    -0.148706990322E+02   -0.32326E-05   -0.96334E-07  7504   0.177E-03    0.149E-04
DAV:  16    -0.148707063227E+02   -0.72905E-05   -0.13369E-07  6008   0.916E-04    0.154E-04
DAV:  17    -0.148707106839E+02   -0.43612E-05   -0.52631E-08  7016   0.506E-04    0.779E-05
DAV:  18    -0.148707176475E+02   -0.69637E-05   -0.21592E-07  6976   0.912E-04    0.127E-04
DAV:  19    -0.148707175042E+02    0.14335E-06   -0.41104E-08  6624   0.574E-04    0.640E-05
DAV:  20    -0.148707168655E+02    0.63866E-06   -0.63174E-09  6400   0.238E-04    0.313E-05
DAV:  21    -0.148707178291E+02   -0.96356E-06   -0.18015E-07  6728   0.741E-04    0.323E-05
DAV:  22    -0.148707207217E+02   -0.28926E-05   -0.19710E-07  6560   0.947E-04    0.270E-05
DAV:  23    -0.148707203196E+02    0.40206E-06   -0.57320E-08  5680   0.465E-04    0.184E-05
DAV:  24    -0.148707204715E+02   -0.15195E-06   -0.23135E-08  5632   0.352E-04    0.977E-06
DAV:  25    -0.148707219943E+02   -0.15228E-05   -0.98417E-08  5384   0.572E-04    0.349E-06
DAV:  26    -0.148707232588E+02   -0.12645E-05   -0.12518E-07  5408   0.614E-04    0.349E-06
DAV:  27    -0.148707235487E+02   -0.28997E-06   -0.26067E-08  5520   0.381E-04    0.388E-06
DAV:  28    -0.148707253183E+02   -0.17695E-05   -0.12774E-07  5208   0.649E-04    0.287E-06
DAV:  29    -0.148707289666E+02   -0.36483E-05   -0.41708E-07  5424   0.960E-04    0.562E-06
DAV:  30    -0.148707318596E+02   -0.28930E-05   -0.46084E-07  5672   0.863E-04    0.736E-06
DAV:  31    -0.148707294061E+02    0.24536E-05   -0.48971E-07  5120   0.806E-04    0.883E-06
DAV:  32    -0.148707288556E+02    0.55048E-06   -0.38567E-08  5624   0.434E-04    0.929E-06
DAV:  33    -0.148707323868E+02   -0.35312E-05   -0.76843E-07  5320   0.109E-03    0.861E-06
DAV:  34    -0.148707309998E+02    0.13870E-05   -0.26589E-07  5152   0.572E-04    0.926E-06
DAV:  35    -0.148707312758E+02   -0.27599E-06   -0.36335E-08  5448   0.360E-04    0.752E-06
DAV:  36    -0.148707275648E+02    0.37109E-05   -0.74052E-07  5152   0.105E-03    0.600E-06
DAV:  37    -0.148707242242E+02    0.33406E-05   -0.37194E-07  5440   0.970E-04    0.761E-06
DAV:  38    -0.148707337663E+02   -0.95421E-05   -0.31926E-06  5528   0.162E-03    0.681E-06
DAV:  39    -0.148707358050E+02   -0.20387E-05   -0.13250E-06  5472   0.620E-04    0.398E-05
DAV:  40    -0.148707326253E+02    0.31797E-05   -0.72234E-05  5144   0.135E-03    0.828E-06
DAV:  41    -0.148707337692E+02   -0.11439E-05   -0.37121E-07  5368   0.559E-04    0.136E-05
DAV:  42    -0.148707338608E+02   -0.91571E-07   -0.55551E-06  5168   0.812E-04    0.840E-06
DAV:  43    -0.148707339081E+02   -0.47297E-07   -0.10452E-07  5248   0.532E-04
   2 F= -.14870734E+02 E0= -.14866425E+02  d E =-.261844E-02  mag=    -0.0000
       N       E                     dE             d eps       ncg     rms          rms(c)
DAV:   1    -0.148715856060E+02   -0.85175E-03   -0.27242E-02  7200   0.816E-01    0.236E-01
DAV:   2    -0.148717790956E+02   -0.19349E-03   -0.19022E-03  8248   0.207E-01    0.844E-02
DAV:   3    -0.148727843411E+02   -0.10052E-02   -0.49555E-04  9224   0.981E-02    0.397E-02
DAV:   4    -0.148723705131E+02    0.41383E-03   -0.48448E-05 10824   0.210E-02    0.207E-02
DAV:   5    -0.148716476711E+02    0.72284E-03   -0.29517E-05 11560   0.206E-02    0.129E-02
DAV:   6    -0.148711541021E+02    0.49357E-03   -0.35855E-06  9960   0.745E-03    0.395E-03
DAV:   7    -0.148709966837E+02    0.15742E-03   -0.13799E-06 10304   0.541E-03    0.229E-03
DAV:   8    -0.148709257679E+02    0.70916E-04   -0.63495E-07  7080   0.373E-03    0.755E-04
DAV:   9    -0.148708830126E+02    0.42755E-04   -0.23071E-07  6880   0.156E-03    0.235E-04
DAV:  10    -0.148708777293E+02    0.52833E-05   -0.59143E-08  7048   0.730E-04    0.186E-04
DAV:  11    -0.148708730888E+02    0.46405E-05   -0.13298E-07  6648   0.618E-04    0.106E-04
DAV:  12    -0.148708644243E+02    0.86645E-05   -0.21345E-06  7528   0.166E-03    0.804E-05
DAV:  13    -0.148708633461E+02    0.10782E-05   -0.43680E-07  5760   0.942E-04    0.623E-05
DAV:  14    -0.148708610436E+02    0.23025E-05   -0.54367E-07  6296   0.104E-03    0.269E-05
DAV:  15    -0.148708559859E+02    0.50578E-05   -0.94029E-06  8352   0.264E-03    0.548E-05
DAV:  16    -0.148708548929E+02    0.10929E-05   -0.61727E-06  5848   0.193E-03    0.520E-05
DAV:  17    -0.148708522190E+02    0.26740E-05   -0.15850E-05  6064   0.282E-03    0.444E-05
DAV:  18    -0.148708510578E+02    0.11612E-05   -0.68010E-06  6464   0.252E-03    0.298E-05
DAV:  19    -0.148708502991E+02    0.75864E-06   -0.73606E-06  6168   0.232E-03    0.173E-05
DAV:  20    -0.148708497635E+02    0.53560E-06   -0.49968E-06  5936   0.183E-03    0.134E-05
DAV:  21    -0.148708491327E+02    0.63079E-06   -0.53701E-07  5712   0.870E-04    0.149E-05
DAV:  22    -0.148708485747E+02    0.55802E-06   -0.39920E-07  5632   0.779E-04    0.124E-05
DAV:  23    -0.148708480394E+02    0.53529E-06   -0.55872E-07  5280   0.797E-04    0.943E-06
DAV:  24    -0.148708478170E+02    0.22243E-06   -0.10323E-06  5104   0.852E-04    0.883E-06
DAV:  25    -0.148708518294E+02   -0.40124E-05   -0.80286E-06  5128   0.971E-04    0.215E-04
DAV:  26    -0.148722775810E+02   -0.14258E-02   -0.47368E-04  5336   0.103E-03    0.349E-02
DAV:  27    -0.148708168926E+02    0.14607E-02   -0.64624E-01  7664   0.194E-02    0.153E-04
DAV:  28    -0.148708166888E+02    0.20383E-06   -0.44865E-06  7880   0.535E-03    0.745E-05
DAV:  29    -0.148708163587E+02    0.33008E-06   -0.16400E-06  7448   0.247E-03    0.572E-05
DAV:  30    -0.148708172437E+02   -0.88498E-06   -0.70839E-07  6056   0.146E-03    0.481E-05
DAV:  31    -0.148708180159E+02   -0.77220E-06   -0.61977E-07  6184   0.130E-03    0.431E-05
DAV:  32    -0.148708200378E+02   -0.20220E-05   -0.63800E-07  6024   0.141E-03    0.396E-05
DAV:  33    -0.148708211968E+02   -0.11590E-05   -0.14116E-06  6288   0.137E-03    0.368E-05
DAV:  34    -0.148708225845E+02   -0.13877E-05   -0.92486E-07  5680   0.108E-03    0.358E-05
DAV:  35    -0.148708229698E+02   -0.38537E-06   -0.74257E-07  5536   0.118E-03    0.353E-05
DAV:  36    -0.148708240653E+02   -0.10954E-05   -0.11900E-06  5352   0.144E-03    0.340E-05
DAV:  37    -0.148708261484E+02   -0.20832E-05   -0.46541E-06  5504   0.136E-03    0.334E-05
DAV:  38    -0.148708263388E+02   -0.19037E-06   -0.14016E-06  5480   0.135E-03    0.309E-05
DAV:  39    -0.148708257702E+02    0.56861E-06   -0.17429E-06  5488   0.120E-03    0.305E-05
DAV:  40    -0.148708253483E+02    0.42187E-06   -0.64312E-07  5392   0.101E-03    0.296E-05
DAV:  41    -0.148708252838E+02    0.64486E-07   -0.20030E-07  5576   0.670E-04
   3 F= -.14870825E+02 E0= -.14866488E+02  d E =-.270982E-02  mag=     0.0000
       N       E                     dE             d eps       ncg     rms          rms(c)
DAV:   1    -0.148714840275E+02   -0.65868E-03   -0.65202E-02  7344   0.138E+00    0.125E-01
DAV:   2    -0.148710274922E+02    0.45654E-03   -0.28488E-03  8488   0.258E-01    0.595E-02
DAV:   3    -0.148706019801E+02    0.42551E-03   -0.12625E-04 10200   0.504E-02    0.375E-02
DAV:   4    -0.148706446185E+02   -0.42638E-04   -0.41965E-05 10000   0.255E-02    0.183E-02
DAV:   5    -0.148708264991E+02   -0.18188E-03   -0.10122E-05 10104   0.127E-02    0.109E-02
DAV:   6    -0.148710631283E+02   -0.23663E-03   -0.48017E-06  9656   0.932E-03    0.544E-03
DAV:   7    -0.148712790830E+02   -0.21595E-03   -0.44015E-06  8096   0.738E-03    0.183E-03
DAV:   8    -0.148713298042E+02   -0.50721E-04   -0.79274E-06  6208   0.523E-03    0.946E-04
DAV:   9    -0.148713531253E+02   -0.23321E-04   -0.44372E-06  6080   0.288E-03    0.592E-04
DAV:  10    -0.148713891449E+02   -0.36020E-04   -0.13577E-05  6256   0.335E-03    0.133E-04
DAV:  11    -0.148713947524E+02   -0.56075E-05   -0.41016E-06  6088   0.219E-03    0.121E-04
DAV:  12    -0.148713946756E+02    0.76841E-07   -0.24270E-06  5920   0.168E-03    0.944E-05
DAV:  13    -0.148713960879E+02   -0.14123E-05   -0.39805E-06  5888   0.202E-03    0.218E-05
DAV:  14    -0.148713971700E+02   -0.10821E-05   -0.33956E-06  5896   0.192E-03    0.271E-05
DAV:  15    -0.148713975494E+02   -0.37940E-06   -0.17256E-06  5576   0.141E-03    0.258E-05
DAV:  16    -0.148713976811E+02   -0.13175E-06   -0.62254E-08  5472   0.413E-04    0.245E-05
DAV:  17    -0.148713976723E+02    0.88526E-08   -0.13174E-09  6128   0.114E-04
   4 F= -.14871398E+02 E0= -.14867057E+02  d E =-.572388E-03  mag=     0.0000
       N       E                     dE             d eps       ncg     rms          rms(c)
DAV:   1    -0.148720633409E+02   -0.66566E-03   -0.22849E-01  7264   0.258E+00    0.234E-01
DAV:   2    -0.148711958460E+02    0.86749E-03   -0.99667E-03  8328   0.479E-01    0.110E-01
DAV:   3    -0.148703202211E+02    0.87562E-03   -0.48261E-04 10224   0.961E-02    0.699E-02
DAV:   4    -0.148703911527E+02   -0.70932E-04   -0.14711E-04 10208   0.479E-02    0.332E-02
DAV:   5    -0.148707332791E+02   -0.34213E-03   -0.35980E-05 10592   0.249E-02    0.186E-02
DAV:   6    -0.148712037052E+02   -0.47043E-03   -0.21726E-05  9904   0.216E-02    0.957E-03
DAV:   7    -0.148715269189E+02   -0.32321E-03   -0.13792E-05  9528   0.172E-02    0.362E-03
DAV:   8    -0.148716374926E+02   -0.11057E-03   -0.23579E-06  8256   0.743E-03    0.187E-03
DAV:   9    -0.148716911395E+02   -0.53647E-04   -0.62496E-07  6792   0.256E-03    0.111E-03
DAV:  10    -0.148717538136E+02   -0.62674E-04   -0.11405E-06  6696   0.213E-03    0.304E-04
DAV:  11    -0.148717565190E+02   -0.27054E-05   -0.17805E-06  5928   0.185E-03    0.225E-04
DAV:  12    -0.148717568565E+02   -0.33751E-06   -0.14571E-06  5736   0.150E-03    0.189E-04
DAV:  13    -0.148717588720E+02   -0.20155E-05   -0.19034E-06  6104   0.162E-03    0.448E-05
DAV:  14    -0.148717564294E+02    0.24426E-05   -0.20455E-06  5904   0.173E-03    0.673E-05
DAV:  15    -0.148717564952E+02   -0.65763E-07   -0.43813E-07  5512   0.970E-04
   5 F= -.14871756E+02 E0= -.14867408E+02  d E =-.931211E-03  mag=     0.0000
       N       E                     dE             d eps       ncg     rms          rms(c)
DAV:   1    -0.148719475711E+02   -0.19114E-03   -0.24032E-02  7264   0.657E-01    0.665E-02
DAV:   2    -0.148718445553E+02    0.10302E-03   -0.10433E-03  7872   0.127E-01    0.280E-02
DAV:   3    -0.148718727970E+02   -0.28242E-04   -0.35931E-05 10280   0.236E-02    0.184E-02
DAV:   4    -0.148720248061E+02   -0.15201E-03   -0.95431E-06  8808   0.128E-02    0.567E-03
DAV:   5    -0.148720897434E+02   -0.64937E-04   -0.39207E-06  9336   0.688E-03    0.401E-03
DAV:   6    -0.148721151120E+02   -0.25369E-04   -0.13193E-06  5968   0.437E-03    0.289E-03
DAV:   7    -0.148768491601E+02   -0.47340E-02   -0.13944E-03  5304   0.317E-03    0.841E-02
DAV:   8    -0.148721114190E+02    0.47377E-02   -0.14083E+00  7184   0.401E-02    0.108E-03
DAV:   9    -0.148721506019E+02   -0.39183E-04   -0.31744E-06  8232   0.915E-03    0.450E-04
DAV:  10    -0.148721676763E+02   -0.17074E-04   -0.33964E-06  7368   0.372E-03    0.244E-04
DAV:  11    -0.148721778092E+02   -0.10133E-04   -0.30002E-06  6688   0.247E-03    0.127E-04
DAV:  12    -0.148721900221E+02   -0.12213E-04   -0.54298E-06  6144   0.186E-03    0.335E-04
DAV:  13    -0.148721895256E+02    0.49655E-06   -0.34631E-03  6272   0.258E-03    0.650E-05
DAV:  14    -0.148721936595E+02   -0.41340E-05   -0.29752E-06  6472   0.171E-03    0.367E-05
DAV:  15    -0.148721951065E+02   -0.14470E-05   -0.58129E-06  6072   0.145E-03    0.345E-05
DAV:  16    -0.148721957815E+02   -0.67497E-06   -0.41707E-07  6152   0.775E-04    0.302E-05
DAV:  17    -0.148721963927E+02   -0.61118E-06   -0.19512E-07  6192   0.651E-04    0.277E-05
DAV:  18    -0.148721968214E+02   -0.42874E-06   -0.21659E-07  5824   0.691E-04    0.265E-05
DAV:  19    -0.148721972219E+02   -0.40052E-06   -0.21180E-07  5576   0.713E-04    0.263E-05
DAV:  20    -0.148721974147E+02   -0.19275E-06   -0.26866E-07  5376   0.772E-04    0.263E-05
DAV:  21    -0.148721976803E+02   -0.26563E-06   -0.20051E-07  5192   0.755E-04    0.262E-05
DAV:  22    -0.148721978644E+02   -0.18411E-06   -0.11944E-07  5200   0.612E-04    0.261E-05
DAV:  23    -0.148721979601E+02   -0.95711E-07   -0.96169E-08  5128   0.493E-04
   6 F= -.14872198E+02 E0= -.14867881E+02  d E =-.441465E-03  mag=     0.0000
       N       E                     dE             d eps       ncg     rms          rms(c)
DAV:   1    -0.148722106732E+02   -0.12809E-04   -0.20125E-04  7424   0.606E-02    0.596E-03
DAV:   2    -0.148721976812E+02    0.12992E-04   -0.86807E-06  8376   0.119E-02    0.253E-03
DAV:   3    -0.148721999075E+02   -0.22263E-05   -0.29620E-07  7440   0.225E-03    0.163E-03
DAV:   4    -0.148722112039E+02   -0.11296E-04   -0.20063E-07  5760   0.172E-03    0.484E-04
DAV:   5    -0.148722134008E+02   -0.21969E-05   -0.14256E-07  5496   0.123E-03    0.303E-04
DAV:   6    -0.148722143480E+02   -0.94717E-06   -0.54446E-08  5816   0.823E-04    0.274E-04
DAV:   7    -0.148722158812E+02   -0.15332E-05   -0.47308E-08  5992   0.560E-04    0.183E-04
DAV:   8    -0.148722173461E+02   -0.14649E-05   -0.13133E-07  6112   0.636E-04    0.438E-05
DAV:   9    -0.148722168001E+02    0.54595E-06   -0.36555E-08  5672   0.484E-04    0.344E-05
DAV:  10    -0.148722158199E+02    0.98016E-06   -0.91398E-08  5728   0.470E-04    0.264E-05
DAV:  11    -0.148722129637E+02    0.28562E-05   -0.84274E-07  6168   0.915E-04    0.147E-05
DAV:  12    -0.148722133194E+02   -0.35571E-06   -0.23437E-07  5320   0.735E-04    0.872E-06
DAV:  13    -0.148722127812E+02    0.53827E-06   -0.20426E-07  5384   0.604E-04    0.677E-06
DAV:  14    -0.148722118221E+02    0.95906E-06   -0.41503E-07  5312   0.680E-04    0.378E-06
DAV:  15    -0.148722116700E+02    0.15205E-06   -0.27874E-07  5120   0.787E-04    0.374E-06
DAV:  16    -0.148722116607E+02    0.93783E-08   -0.16429E-07  5104   0.628E-04
   7 F= -.14872212E+02 E0= -.14867897E+02  d E =-.455165E-03  mag=     0.0000
       N       E                     dE             d eps       ncg     rms          rms(c)
DAV:   1    -0.148722324325E+02   -0.20762E-04   -0.82057E-04  7264   0.121E-01    0.124E-02
DAV:   2    -0.148722066598E+02    0.25773E-04   -0.36752E-05  7360   0.237E-02    0.520E-03
DAV:   3    -0.148722129115E+02   -0.62518E-05   -0.12809E-06  9072   0.451E-03    0.343E-03
DAV:   4    -0.148722402825E+02   -0.27371E-04   -0.17532E-06  6512   0.283E-03    0.104E-03
DAV:   5    -0.148722509469E+02   -0.10664E-04   -0.65252E-07  5256   0.201E-03    0.595E-04
DAV:   6    -0.148722555768E+02   -0.46298E-05   -0.24240E-06  5232   0.186E-03    0.511E-04
DAV:   7    -0.148722617846E+02   -0.62078E-05   -0.54095E-06  5312   0.174E-03    0.268E-04
DAV:   8    -0.148722600244E+02    0.17602E-05   -0.10706E-04  5824   0.247E-03    0.845E-05
DAV:   9    -0.148761754496E+02   -0.39154E-02   -0.91767E-05  6160   0.203E-03    0.752E-02
DAV:  10    -0.148722383937E+02    0.39371E-02   -0.97826E-01  6784   0.368E-02    0.260E-04
DAV:  11    -0.148722587432E+02   -0.20349E-04   -0.33193E-06  7168   0.807E-03    0.775E-05
DAV:  12    -0.148722684607E+02   -0.97175E-05   -0.58701E-06  6240   0.323E-03    0.488E-05
DAV:  13    -0.148722710944E+02   -0.26337E-05   -0.18660E-06  5648   0.175E-03    0.280E-05
DAV:  14    -0.148722896915E+02   -0.18597E-04   -0.11452E-05  5944   0.194E-03    0.715E-04
DAV:  15    -0.148722775585E+02    0.12133E-04   -0.37435E-03  5984   0.136E-03    0.198E-05
DAV:  16    -0.148722776006E+02   -0.42105E-07   -0.49465E-07  5664   0.934E-04
   8 F= -.14872278E+02 E0= -.14867969E+02  d E =-.521105E-03  mag=    -0.0000
       N       E                     dE             d eps       ncg     rms          rms(c)
DAV:   1    -0.148723012155E+02   -0.23657E-04   -0.32700E-03  7536   0.242E-01    0.245E-02
DAV:   2    -0.148722505620E+02    0.50654E-04   -0.13953E-04  7944   0.471E-02    0.103E-02
DAV:   3    -0.148722629793E+02   -0.12417E-04   -0.45498E-06 10064   0.864E-03    0.678E-03
DAV:   4    -0.148723179545E+02   -0.54975E-04   -0.16312E-06  8384   0.495E-03    0.217E-03
DAV:   5    -0.148723394492E+02   -0.21495E-04   -0.63475E-07  6000   0.269E-03    0.122E-03
DAV:   6    -0.148723471644E+02   -0.77152E-05   -0.28146E-07  5568   0.196E-03    0.969E-04
DAV:   7    -0.148723564834E+02   -0.93189E-05   -0.42515E-07  5536   0.138E-03    0.495E-04
DAV:   8    -0.148723648726E+02   -0.83893E-05   -0.27015E-06  5544   0.114E-03    0.198E-04
DAV:   9    -0.148723558711E+02    0.90015E-05   -0.88667E-04  6000   0.312E-03    0.159E-04
DAV:  10    -0.148723697812E+02   -0.13910E-04   -0.75879E-06  6264   0.302E-03    0.113E-04
DAV:  11    -0.148764176862E+02   -0.40479E-02   -0.12212E-03  6296   0.177E-03    0.744E-02
DAV:  12    -0.148723301524E+02    0.40875E-02   -0.12030E+00  7320   0.364E-02    0.254E-04
DAV:  13    -0.148723711611E+02   -0.41009E-04   -0.47701E-06  7624   0.842E-03    0.776E-05
DAV:  14    -0.148723800067E+02   -0.88456E-05   -0.40239E-06  6600   0.330E-03    0.465E-05
DAV:  15    -0.148723820488E+02   -0.20421E-05   -0.46011E-07  5752   0.123E-03    0.357E-05
DAV:  16    -0.148723831290E+02   -0.10802E-05   -0.97518E-07  5776   0.121E-03    0.299E-05
DAV:  17    -0.148723824465E+02    0.68251E-06   -0.24220E-07  5824   0.709E-04    0.226E-05
DAV:  18    -0.148723811384E+02    0.13080E-05   -0.45683E-07  5840   0.933E-04    0.180E-05
DAV:  19    -0.148723809768E+02    0.16162E-06   -0.30489E-07  5664   0.755E-04    0.158E-05
DAV:  20    -0.148723809836E+02   -0.68280E-08   -0.45089E-07  5672   0.855E-04
   9 F= -.14872381E+02 E0= -.14868083E+02  d E =-.624488E-03  mag=    -0.0000
       N       E                     dE             d eps       ncg     rms          rms(c)
DAV:   1    -0.148723559848E+02    0.24992E-04   -0.13006E-02  7808   0.485E-01    0.485E-02
DAV:   2    -0.148722671803E+02    0.88804E-04   -0.55323E-04  8144   0.939E-02    0.206E-02
DAV:   3    -0.148722904907E+02   -0.23310E-04   -0.17210E-05 10264   0.169E-02    0.134E-02
DAV:   4    -0.148723972258E+02   -0.10674E-03   -0.47082E-06  8552   0.903E-03    0.500E-03
DAV:   5    -0.148724438498E+02   -0.46624E-04   -0.12059E-06  8528   0.460E-03    0.311E-03
DAV:   6    -0.148724660294E+02   -0.22180E-04   -0.33343E-07  6096   0.230E-03    0.204E-03
DAV:   7    -0.148724957531E+02   -0.29724E-04   -0.11142E-06  6128   0.225E-03    0.651E-04
DAV:   8    -0.148725040577E+02   -0.83046E-05   -0.12550E-06  5576   0.182E-03    0.303E-04
DAV:   9    -0.148725013563E+02    0.27014E-05   -0.24153E-04  5592   0.224E-03    0.219E-04
DAV:  10    -0.148725109224E+02   -0.95661E-05   -0.32735E-06  5688   0.173E-03    0.146E-04
DAV:  11    -0.148725112930E+02   -0.37062E-06   -0.11456E-06  5960   0.118E-03    0.481E-05
DAV:  12    -0.148725110991E+02    0.19395E-06   -0.66786E-07  5776   0.114E-03    0.372E-05
DAV:  13    -0.148725101283E+02    0.97082E-06   -0.66455E-07  5600   0.974E-04    0.285E-05
DAV:  14    -0.148725095957E+02    0.53259E-06   -0.83429E-07  5392   0.961E-04    0.165E-05
DAV:  15    -0.148725101228E+02   -0.52712E-06   -0.62922E-06  5376   0.139E-03    0.953E-06
DAV:  16    -0.148725103020E+02   -0.17925E-06   -0.36284E-07  5200   0.862E-04    0.734E-06
DAV:  17    -0.148725099056E+02    0.39647E-06   -0.30143E-07  5328   0.699E-04    0.658E-06
DAV:  18    -0.148725095005E+02    0.40507E-06   -0.35063E-07  5304   0.726E-04    0.577E-06
DAV:  19    -0.148725091882E+02    0.31230E-06   -0.19356E-07  5144   0.630E-04    0.398E-06
DAV:  20    -0.148725091998E+02   -0.11631E-07   -0.57148E-07  5160   0.654E-04
  10 F= -.14872509E+02 E0= -.14868232E+02  d E =-.752705E-03  mag=    -0.0000
       N       E                     dE             d eps       ncg     rms          rms(c)
DAV:   1    -0.148725173008E+02   -0.81126E-05   -0.47584E-03  7208   0.292E-01    0.299E-02
DAV:   2    -0.148725692101E+02   -0.51909E-04   -0.20366E-04  7544   0.568E-02    0.125E-02
DAV:   3    -0.148725511232E+02    0.18087E-04   -0.75971E-06  9288   0.106E-02    0.829E-03
DAV:   4    -0.148726777180E+02   -0.12659E-03   -0.32547E-05  7816   0.686E-03    0.702E-03
DAV:   5    -0.148724709868E+02    0.20673E-03   -0.11873E-01  8304   0.800E-03    0.242E-03
DAV:   6    -0.148724597863E+02    0.11201E-04   -0.28993E-06  7520   0.394E-03    0.124E-03
DAV:   7    -0.148724467090E+02    0.13077E-04   -0.38533E-06  7392   0.465E-03    0.965E-04
DAV:   8    -0.148724501444E+02   -0.34354E-05   -0.86982E-06  7384   0.498E-03    0.498E-04
DAV:   9    -0.148724412794E+02    0.88649E-05   -0.60715E-06  6768   0.352E-03    0.207E-04
DAV:  10    -0.148724423432E+02   -0.10637E-05   -0.21119E-06  7448   0.203E-03    0.142E-04
DAV:  11    -0.148724426844E+02   -0.34125E-06   -0.29526E-06  6456   0.201E-03    0.105E-04
DAV:  12    -0.148724431397E+02   -0.45534E-06   -0.17925E-06  6624   0.147E-03    0.877E-05
DAV:  13    -0.148724450696E+02   -0.19298E-05   -0.11417E-06  6200   0.108E-03    0.846E-05
DAV:  14    -0.148724469152E+02   -0.18456E-05   -0.85599E-07  6376   0.862E-04    0.815E-05
DAV:  15    -0.148724494415E+02   -0.25264E-05   -0.77889E-07  6152   0.880E-04    0.798E-05
DAV:  16    -0.148724854730E+02   -0.36031E-04   -0.20729E-05  6280   0.947E-04    0.146E-03
DAV:  17    -0.148724542685E+02    0.31204E-04   -0.13022E-04  5392   0.919E-04    0.998E-05
DAV:  18    -0.148724505833E+02    0.36852E-05   -0.14278E-03  6040   0.170E-03    0.808E-05
DAV:  19    -0.148724499886E+02    0.59474E-06   -0.14170E-07  5896   0.469E-04    0.800E-05
DAV:  20    -0.148724505377E+02   -0.54910E-06   -0.45250E-08  6096   0.307E-04    0.788E-05
DAV:  21    -0.148724513714E+02   -0.83374E-06   -0.14512E-07  5928   0.381E-04    0.772E-05
DAV:  22    -0.148724526041E+02   -0.12327E-05   -0.85048E-07  5592   0.601E-04    0.753E-05
DAV:  23    -0.148724539162E+02   -0.13122E-05   -0.89498E-07  5528   0.597E-04    0.717E-05
DAV:  24    -0.148724538918E+02    0.24427E-07   -0.96811E-07  5232   0.354E-04
  11 F= -.14872454E+02 E0= -.14868165E+02  d E =-.697397E-03  mag=     0.0000
       N       E                     dE             d eps       ncg     rms          rms(c)
DAV:   1    -0.148726478874E+02   -0.19397E-03   -0.23512E-02  7232   0.861E-01    0.113E-01
DAV:   2    -0.148719882601E+02    0.65963E-03   -0.10577E-03  7888   0.162E-01    0.462E-02
DAV:   3    -0.148714021052E+02    0.58615E-03   -0.13769E-04  9608   0.506E-02    0.196E-02
DAV:   4    -0.148716399989E+02   -0.23789E-03   -0.10780E-05 10368   0.113E-02    0.115E-02
DAV:   5    -0.148719025830E+02   -0.26258E-03   -0.40227E-06  9984   0.771E-03    0.807E-03
DAV:   6    -0.148722158868E+02   -0.31330E-03   -0.25226E-06 11096   0.547E-03    0.339E-03
DAV:   7    -0.148723477200E+02   -0.13183E-03   -0.90367E-07  6688   0.251E-03    0.131E-03
DAV:   8    -0.148723899296E+02   -0.42210E-04   -0.21631E-06  6752   0.246E-03    0.783E-04
DAV:   9    -0.148724419986E+02   -0.52069E-04   -0.19321E-05  6512   0.209E-03    0.146E-03
DAV:  10    -0.148724134050E+02    0.28594E-04   -0.20205E-02  6160   0.295E-03    0.283E-04
DAV:  11    -0.148724262128E+02   -0.12808E-04   -0.32526E-07  6408   0.119E-03    0.758E-05
DAV:  12    -0.148724258204E+02    0.39237E-06   -0.10054E-07  5920   0.798E-04    0.664E-05
DAV:  13    -0.148724278111E+02   -0.19907E-05   -0.86831E-08  6112   0.694E-04    0.554E-05
DAV:  14    -0.148724359686E+02   -0.81575E-05   -0.89934E-07  6704   0.153E-03    0.410E-05
DAV:  15    -0.148724378367E+02   -0.18681E-05   -0.22865E-07  6032   0.893E-04    0.321E-05
DAV:  16    -0.148724408870E+02   -0.30503E-05   -0.78401E-07  5504   0.107E-03    0.318E-05
DAV:  17    -0.148738894568E+02   -0.14486E-02   -0.41974E-04  6184   0.174E-03    0.345E-02
DAV:  18    -0.148724341966E+02    0.14553E-02   -0.43446E-01  6416   0.177E-02    0.120E-04
DAV:  19    -0.148724539601E+02   -0.19764E-04   -0.12006E-06  6592   0.459E-03    0.411E-05
DAV:  20    -0.148724578600E+02   -0.38999E-05   -0.68587E-07  5504   0.152E-03    0.311E-05
DAV:  21    -0.148724582937E+02   -0.43369E-06   -0.10842E-07  5752   0.628E-04    0.294E-05
DAV:  22    -0.148724583411E+02   -0.47361E-07   -0.68742E-08  5464   0.363E-04
  12 F= -.14872458E+02 E0= -.14868277E+02  d E =-.444925E-05  mag=    -0.0000
       N       E                     dE             d eps       ncg     rms          rms(c)
DAV:   1    -0.148724585491E+02   -0.25538E-06   -0.22427E-05  7376   0.265E-02    0.348E-03
DAV:   2    -0.148724711177E+02   -0.12569E-04   -0.29305E-06  8072   0.555E-03    0.142E-03
DAV:   3    -0.148724871466E+02   -0.16029E-04   -0.85575E-07  6080   0.210E-03    0.578E-04
DAV:   4    -0.148724854119E+02    0.17347E-05   -0.68386E-07  5800   0.125E-03    0.357E-04
DAV:   5    -0.148724814140E+02    0.39979E-05   -0.16437E-06  5536   0.127E-03    0.230E-04
DAV:   6    -0.148724729782E+02    0.84359E-05   -0.42082E-07  5480   0.112E-03    0.120E-04
DAV:   7    -0.148724670611E+02    0.59171E-05   -0.51570E-07  5816   0.967E-04    0.553E-05
DAV:   8    -0.148724615558E+02    0.55053E-05   -0.22334E-07  6032   0.793E-04    0.404E-05
DAV:   9    -0.148724550947E+02    0.64611E-05   -0.53412E-07  5848   0.111E-03    0.142E-05
DAV:  10    -0.148724515331E+02    0.35616E-05   -0.68158E-07  5656   0.108E-03    0.111E-05
DAV:  11    -0.148724505708E+02    0.96225E-06   -0.27991E-07  5552   0.779E-04    0.118E-05
DAV:  12    -0.148724481360E+02    0.24349E-05   -0.39267E-07  5584   0.643E-04    0.787E-06
DAV:  13    -0.148724476626E+02    0.47336E-06   -0.24860E-07  5312   0.761E-04    0.868E-06
DAV:  14    -0.148724472767E+02    0.38590E-06   -0.10131E-07  5256   0.527E-04    0.812E-06
DAV:  15    -0.148724461517E+02    0.11250E-05   -0.46483E-07  5472   0.493E-04    0.475E-06
DAV:  16    -0.148724467506E+02   -0.59888E-06   -0.48660E-07  5096   0.598E-04    0.712E-06
DAV:  17    -0.148724460092E+02    0.74137E-06   -0.13275E-06  5120   0.545E-04    0.285E-05
DAV:  18    -0.148732432185E+02   -0.79721E-03   -0.29241E-04  5096   0.529E-04    0.219E-02
DAV:  19    -0.148724152322E+02    0.82799E-03   -0.39211E-01  7560   0.126E-02    0.109E-04
DAV:  20    -0.148724024558E+02    0.12776E-04   -0.30076E-06  7576   0.396E-03    0.662E-05
DAV:  21    -0.148724080398E+02   -0.55840E-05   -0.87797E-07  6968   0.209E-03    0.367E-05
DAV:  22    -0.148724082670E+02   -0.22719E-06   -0.10992E-06  6344   0.155E-03    0.298E-05
DAV:  23    -0.148724083966E+02   -0.12956E-06   -0.84075E-07  5864   0.154E-03    0.240E-05
DAV:  24    -0.148724115361E+02   -0.31396E-05   -0.16828E-06  5984   0.152E-03    0.201E-05
DAV:  25    -0.148724109473E+02    0.58879E-06   -0.30903E-07  5576   0.972E-04    0.175E-05
DAV:  26    -0.148724105164E+02    0.43090E-06   -0.24903E-07  5672   0.886E-04    0.170E-05
DAV:  27    -0.148724108333E+02   -0.31682E-06   -0.20789E-07  5560   0.857E-04    0.162E-05
DAV:  28    -0.148724110383E+02   -0.20504E-06   -0.22860E-07  5448   0.952E-04    0.139E-05
DAV:  29    -0.148724116675E+02   -0.62916E-06   -0.15591E-07  5464   0.900E-04    0.128E-05
DAV:  30    -0.148724130652E+02   -0.13977E-05   -0.18741E-07  5424   0.864E-04    0.121E-05
DAV:  31    -0.148724146247E+02   -0.15595E-05   -0.29324E-07  5528   0.104E-03    0.111E-05
DAV:  32    -0.148724158165E+02   -0.11918E-05   -0.21051E-07  5336   0.838E-04    0.107E-05
DAV:  33    -0.148724163781E+02   -0.56165E-06   -0.16590E-07  5488   0.604E-04    0.118E-05
DAV:  34    -0.148724167342E+02   -0.35611E-06   -0.22817E-07  5448   0.390E-04    0.107E-05
DAV:  35    -0.148724166704E+02    0.63843E-07   -0.48835E-09  5656   0.149E-04
  13 F= -.14872417E+02 E0= -.14868232E+02  d E =0.372214E-04  mag=     0.0000
       N       E                     dE             d eps       ncg     rms          rms(c)
DAV:   1    -0.148724610500E+02   -0.44316E-04   -0.50539E-03  7248   0.393E-01    0.603E-02
DAV:   2    -0.148726221307E+02   -0.16108E-03   -0.23097E-04  7552   0.778E-02    0.229E-02
DAV:   3    -0.148728538952E+02   -0.23176E-03   -0.29499E-05  9088   0.236E-02    0.908E-03
DAV:   4    -0.148727769712E+02    0.76924E-04   -0.29093E-06 10656   0.548E-03    0.589E-03
DAV:   5    -0.148726356988E+02    0.14127E-03   -0.10739E-06 10176   0.367E-03    0.366E-03
DAV:   6    -0.148725027121E+02    0.13299E-03   -0.11495E-06  8080   0.274E-03    0.163E-03
DAV:   7    -0.148725701684E+02   -0.67456E-04   -0.35720E-05  6464   0.196E-03    0.458E-03
DAV:   8    -0.148724545072E+02    0.11566E-03   -0.43944E-02  5776   0.389E-03    0.739E-04
DAV:   9    -0.148724165057E+02    0.38002E-04   -0.36363E-06  6208   0.245E-03    0.317E-04
DAV:  10    -0.148724052770E+02    0.11229E-04   -0.45665E-07  5696   0.142E-03    0.142E-04
DAV:  11    -0.148723905512E+02    0.14726E-04   -0.91137E-07  5944   0.134E-03    0.770E-05
DAV:  12    -0.148723837831E+02    0.67681E-05   -0.38904E-07  5808   0.110E-03    0.584E-05
DAV:  13    -0.148723758588E+02    0.79243E-05   -0.72993E-07  5720   0.144E-03    0.305E-05
DAV:  14    -0.148723706940E+02    0.51648E-05   -0.10590E-06  5688   0.162E-03    0.201E-05
DAV:  15    -0.148723678163E+02    0.28776E-05   -0.13116E-06  5800   0.169E-03    0.191E-05
DAV:  16    -0.148723642090E+02    0.36073E-05   -0.22574E-06  5920   0.199E-03    0.159E-05
DAV:  17    -0.148723603941E+02    0.38149E-05   -0.13324E-06  6160   0.174E-03    0.163E-05
DAV:  18    -0.148723598977E+02    0.49644E-06   -0.35725E-07  6096   0.973E-04    0.146E-05
DAV:  19    -0.148723592175E+02    0.68015E-06   -0.12541E-07  5888   0.538E-04    0.147E-05
DAV:  20    -0.148723588696E+02    0.34794E-06   -0.30800E-07  5592   0.545E-04    0.184E-05
DAV:  21    -0.148723600155E+02   -0.11459E-05   -0.24752E-06  5456   0.697E-04    0.146E-05
DAV:  22    -0.148723592501E+02    0.76541E-06   -0.21885E-07  5400   0.656E-04    0.151E-05
DAV:  23    -0.148723588368E+02    0.41325E-06   -0.12740E-07  5296   0.474E-04    0.159E-05
DAV:  24    -0.148723589134E+02   -0.76561E-07   -0.75939E-08  5128   0.460E-04
  14 F= -.14872359E+02 E0= -.14868181E+02  d E =0.577570E-04  mag=     0.0000
       N       E                     dE             d eps       ncg     rms          rms(c)
DAV:   1    -0.148723636826E+02   -0.48458E-05   -0.45044E-04  7264   0.117E-01    0.180E-02
DAV:   2    -0.148722903724E+02    0.73310E-04   -0.25223E-05  7400   0.236E-02    0.683E-03
DAV:   3    -0.148722177009E+02    0.72672E-04   -0.31535E-06  8880   0.740E-03    0.272E-03
DAV:   4    -0.148722408640E+02   -0.23163E-04   -0.37555E-07  6808   0.212E-03    0.174E-03
DAV:   5    -0.148722818737E+02   -0.41010E-04   -0.86672E-07  6208   0.233E-03    0.942E-04
DAV:   6    -0.148723140609E+02   -0.32187E-04   -0.55141E-07  5536   0.192E-03    0.509E-04
DAV:   7    -0.148723247970E+02   -0.10736E-04   -0.21299E-07  5344   0.133E-03    0.297E-04
DAV:   8    -0.148723465480E+02   -0.21751E-04   -0.41321E-07  5872   0.144E-03    0.732E-05
DAV:   9    -0.148723516272E+02   -0.50792E-05   -0.33936E-07  5368   0.122E-03    0.635E-05
DAV:  10    -0.148723559320E+02   -0.43048E-05   -0.17506E-07  5688   0.996E-04    0.697E-05
DAV:  11    -0.148723563666E+02   -0.43464E-06   -0.12983E-08  6024   0.392E-04    0.877E-05
DAV:  12    -0.148723532720E+02    0.30947E-05   -0.33029E-08  5208   0.514E-04    0.135E-04
DAV:  13    -0.148723622576E+02   -0.89857E-05   -0.22324E-07  5272   0.985E-04    0.742E-05
DAV:  14    -0.148723806267E+02   -0.18369E-04   -0.72475E-07  5736   0.155E-03    0.890E-05
DAV:  15    -0.148723883911E+02   -0.77644E-05   -0.29404E-07  5488   0.100E-03    0.140E-04
DAV:  16    -0.148723942313E+02   -0.58402E-05   -0.26830E-07  5704   0.906E-04    0.171E-04
DAV:  17    -0.148723979119E+02   -0.36807E-05   -0.34967E-07  5336   0.935E-04    0.176E-04
DAV:  18    -0.148724007323E+02   -0.28203E-05   -0.66729E-07  5312   0.102E-03    0.162E-04
DAV:  19    -0.148723994237E+02    0.13086E-05   -0.38796E-07  5552   0.585E-04    0.137E-04
DAV:  20    -0.148723991416E+02    0.28203E-06   -0.83506E-06  5208   0.102E-03    0.137E-04
DAV:  21    -0.148723981626E+02    0.97905E-06   -0.65045E-08  5640   0.479E-04    0.123E-04
DAV:  22    -0.148723973651E+02    0.79750E-06   -0.67420E-08  5296   0.439E-04    0.114E-04
DAV:  23    -0.148723950422E+02    0.23228E-05   -0.28583E-07  5376   0.837E-04    0.861E-05
DAV:  24    -0.148723935375E+02    0.15048E-05   -0.42282E-08  5488   0.415E-04    0.728E-05
DAV:  25    -0.148723920891E+02    0.14483E-05   -0.63281E-08  5112   0.503E-04    0.590E-05
DAV:  26    -0.148723900399E+02    0.20493E-05   -0.33096E-07  5208   0.749E-04    0.411E-05
DAV:  27    -0.148723880463E+02    0.19936E-05   -0.25373E-07  5328   0.832E-04    0.236E-05
DAV:  28    -0.148723870075E+02    0.10388E-05   -0.14205E-07  5576   0.623E-04    0.128E-05
DAV:  29    -0.148723870687E+02   -0.61219E-07   -0.14131E-07  5656   0.530E-04
  15 F= -.14872387E+02 E0= -.14868208E+02  d E =0.296017E-04  mag=    -0.0000
       N       E                     dE             d eps       ncg     rms          rms(c)
DAV:   1    -0.148723901298E+02   -0.31223E-05   -0.43204E-04  7512   0.105E-01    0.892E-03
DAV:   2    -0.148723855840E+02    0.45458E-05   -0.19815E-05  7392   0.199E-02    0.391E-03
DAV:   3    -0.148723714260E+02    0.14158E-04   -0.82187E-07  7400   0.362E-03    0.232E-03
DAV:   4    -0.148723583974E+02    0.13029E-04   -0.15941E-06  6032   0.304E-03    0.643E-04
DAV:   5    -0.148725395409E+02   -0.18114E-03   -0.68025E-05  5584   0.259E-03    0.662E-03
DAV:   6    -0.148723580123E+02    0.18153E-03   -0.14267E-02  5256   0.383E-03    0.416E-04
DAV:   7    -0.148723614603E+02   -0.34480E-05   -0.23668E-06  5752   0.194E-03    0.302E-04
DAV:   8    -0.148723645518E+02   -0.30915E-05   -0.17463E-06  5512   0.186E-03    0.192E-04
DAV:   9    -0.148723684081E+02   -0.38563E-05   -0.60708E-06  5736   0.201E-03    0.526E-05
DAV:  10    -0.148794660703E+02   -0.70977E-02   -0.29921E-04  5976   0.182E-03    0.116E-01
DAV:  11    -0.148723252032E+02    0.71409E-02   -0.19730E+00  7600   0.555E-02    0.394E-04
DAV:  12    -0.148723509481E+02   -0.25745E-04   -0.54768E-06  7968   0.104E-02    0.118E-04
DAV:  13    -0.148723653095E+02   -0.14361E-04   -0.29065E-06  7168   0.405E-03    0.644E-05
DAV:  14    -0.148723701543E+02   -0.48448E-05   -0.25354E-06  6552   0.247E-03    0.439E-05
DAV:  15    -0.148723694802E+02    0.67412E-06   -0.43230E-06  5936   0.215E-03    0.268E-05
DAV:  16    -0.148723692473E+02    0.23292E-06   -0.43778E-07  6488   0.920E-04    0.198E-05
DAV:  17    -0.148723690109E+02    0.23641E-06   -0.35128E-08  6656   0.396E-04    0.176E-05
DAV:  18    -0.148723688706E+02    0.14022E-06   -0.97407E-09  6160   0.263E-04    0.167E-05
DAV:  19    -0.148723686120E+02    0.25863E-06   -0.11367E-08  5760   0.276E-04    0.155E-05
DAV:  20    -0.148723682268E+02    0.38522E-06   -0.28568E-08  5776   0.371E-04    0.146E-05
DAV:  21    -0.148723679696E+02    0.25716E-06   -0.21945E-08  6032   0.339E-04    0.142E-05
DAV:  22    -0.148723678737E+02    0.95928E-07   -0.10305E-08  5584   0.243E-04
  16 F= -.14872368E+02 E0= -.14868174E+02  d E =0.191950E-04  mag=     0.0000
       N       E                     dE             d eps       ncg     rms          rms(c)
DAV:   1    -0.148723684543E+02   -0.48468E-06   -0.26711E-04  7632   0.834E-02    0.689E-03
DAV:   2    -0.148723620990E+02    0.63554E-05   -0.11823E-05  7528   0.159E-02    0.309E-03
DAV:   3    -0.148723489720E+02    0.13127E-04   -0.46943E-07  7400   0.291E-03    0.177E-03
DAV:   4    -0.148723354053E+02    0.13567E-04   -0.51883E-07  6192   0.252E-03    0.468E-04
DAV:   5    -0.148723355159E+02   -0.11057E-06   -0.41237E-07  6160   0.198E-03    0.294E-04
DAV:   6    -0.148723378568E+02   -0.23409E-05   -0.18427E-07  6224   0.120E-03    0.228E-04
DAV:   7    -0.148723403843E+02   -0.25276E-05   -0.17631E-07  5840   0.983E-04    0.183E-04
DAV:   8    -0.148723469068E+02   -0.65225E-05   -0.63608E-07  6472   0.151E-03    0.477E-05
DAV:   9    -0.148723483807E+02   -0.14739E-05   -0.31560E-07  5784   0.108E-03    0.429E-05
DAV:  10    -0.148723496902E+02   -0.13095E-05   -0.20555E-07  5784   0.919E-04    0.368E-05
DAV:  11    -0.148723527702E+02   -0.30800E-05   -0.10438E-06  5792   0.142E-03    0.110E-05
DAV:  12    -0.148723539463E+02   -0.11761E-05   -0.35030E-07  5808   0.976E-04    0.125E-05
DAV:  13    -0.148723547587E+02   -0.81244E-06   -0.19252E-07  5320   0.722E-04    0.109E-05
DAV:  14    -0.148723550584E+02   -0.29966E-06   -0.27269E-08  5720   0.342E-04    0.120E-05
DAV:  15    -0.148723545860E+02    0.47238E-06   -0.48504E-08  5176   0.427E-04    0.154E-05
DAV:  16    -0.148723541964E+02    0.38963E-06   -0.23901E-08  5088   0.341E-04    0.176E-05
DAV:  17    -0.148723558558E+02   -0.16595E-05   -0.26584E-07  5064   0.812E-04    0.146E-05
DAV:  18    -0.148723585285E+02   -0.26727E-05   -0.46698E-07  5176   0.929E-04    0.940E-06
DAV:  19    -0.148723615838E+02   -0.30553E-05   -0.12396E-06  5480   0.978E-04    0.266E-05
DAV:  20    -0.148738280314E+02   -0.14664E-02   -0.43762E-04  5424   0.762E-04    0.351E-02
DAV:  21    -0.148723064773E+02    0.15216E-02   -0.64092E-01  7304   0.186E-02    0.302E-04
DAV:  22    -0.148723210910E+02   -0.14614E-04   -0.42238E-06  7952   0.553E-03    0.135E-04
DAV:  23    -0.148723183718E+02    0.27191E-05   -0.74829E-07  6968   0.207E-03    0.862E-05
DAV:  24    -0.148723133199E+02    0.50519E-05   -0.84928E-07  6752   0.188E-03    0.563E-05
DAV:  25    -0.148723121813E+02    0.11385E-05   -0.23350E-07  6656   0.114E-03    0.603E-05
DAV:  26    -0.148723084862E+02    0.36951E-05   -0.34841E-07  5968   0.140E-03    0.595E-05
DAV:  27    -0.148723059576E+02    0.25287E-05   -0.22438E-07  5872   0.122E-03    0.476E-05
DAV:  28    -0.148723057862E+02    0.17140E-06   -0.11335E-07  5712   0.888E-04    0.410E-05
DAV:  29    -0.148723100845E+02   -0.42983E-05   -0.60322E-07  6032   0.150E-03    0.384E-05
DAV:  30    -0.148723103827E+02   -0.29821E-06   -0.46941E-07  5600   0.145E-03    0.308E-05
DAV:  31    -0.148723148362E+02   -0.44535E-05   -0.15246E-06  6176   0.154E-03    0.331E-05
DAV:  32    -0.148723199867E+02   -0.51505E-05   -0.31714E-06  5832   0.149E-03    0.367E-05
DAV:  33    -0.148723180393E+02    0.19474E-05   -0.20919E-06  5240   0.981E-04    0.349E-05
DAV:  34    -0.148723134748E+02    0.45645E-05   -0.35510E-06  5488   0.130E-03    0.331E-05
DAV:  35    -0.148723133143E+02    0.16044E-06   -0.20748E-07  5872   0.886E-04    0.318E-05
DAV:  36    -0.148723148349E+02   -0.15206E-05   -0.41682E-07  5664   0.107E-03    0.326E-05
DAV:  37    -0.148723136301E+02    0.12048E-05   -0.15853E-07  5616   0.875E-04    0.341E-05
DAV:  38    -0.148723134982E+02    0.13192E-06   -0.32288E-08  5784   0.462E-04    0.345E-05
DAV:  39    -0.148723133172E+02    0.18104E-06   -0.86506E-09  5416   0.263E-04    0.347E-05
DAV:  40    -0.148723128814E+02    0.43580E-06   -0.27002E-08  5272   0.455E-04    0.352E-05
DAV:  41    -0.148723134154E+02   -0.53400E-06   -0.55616E-08  5128   0.550E-04    0.348E-05
DAV:  42    -0.148723139988E+02   -0.58345E-06   -0.55340E-08  5240   0.549E-04    0.349E-05
DAV:  43    -0.148723134215E+02    0.57734E-06   -0.38731E-08  5104   0.494E-04    0.351E-05
DAV:  44    -0.148723143861E+02   -0.96467E-06   -0.77793E-08  5056   0.591E-04    0.351E-05
DAV:  45    -0.148723133571E+02    0.10291E-05   -0.94582E-08  5048   0.596E-04    0.354E-05
DAV:  46    -0.148723133003E+02    0.56748E-07   -0.53149E-09  5384   0.267E-04
  17 F= -.14872313E+02 E0= -.14868108E+02  d E =0.737684E-04  mag=    -0.0000
       N       E                     dE             d eps       ncg     rms          rms(c)
DAV:   1    -0.148723101897E+02    0.31674E-05   -0.20866E-06  7248   0.693E-03    0.536E-04
DAV:   2    -0.148723105093E+02   -0.31962E-06   -0.19520E-06  5784   0.307E-03    0.221E-04
DAV:   3    -0.148723104513E+02    0.57986E-07   -0.22044E-07  5504   0.124E-03
  18 F= -.14872310E+02 E0= -.14868104E+02  d E =0.766174E-04  mag=    -0.0000
       N       E                     dE             d eps       ncg     rms          rms(c)
DAV:   1    -0.148723111342E+02   -0.62493E-06   -0.90145E-05  8144   0.518E-02    0.708E-03
DAV:   2    -0.148722755522E+02    0.35582E-04   -0.45883E-06  7512   0.104E-02    0.297E-03
DAV:   3    -0.148722451911E+02    0.30361E-04   -0.11407E-06  8912   0.388E-03    0.134E-03
DAV:   4    -0.148722611480E+02   -0.15957E-04   -0.89978E-07  5912   0.201E-03    0.755E-04
DAV:   5    -0.148722784592E+02   -0.17311E-04   -0.19734E-06  6976   0.257E-03    0.400E-04
DAV:   6    -0.148722889250E+02   -0.10466E-04   -0.26080E-06  6224   0.263E-03    0.238E-04
DAV:   7    -0.148722987020E+02   -0.97769E-05   -0.59718E-07  5976   0.157E-03    0.124E-04
DAV:   8    -0.148723080968E+02   -0.93948E-05   -0.49196E-07  5512   0.146E-03    0.651E-05
DAV:   9    -0.148723139272E+02   -0.58304E-05   -0.33941E-07  5984   0.115E-03    0.442E-05
DAV:  10    -0.148723220106E+02   -0.80835E-05   -0.65836E-07  5400   0.153E-03    0.195E-05
DAV:  11    -0.148723283009E+02   -0.62902E-05   -0.62470E-07  6040   0.145E-03    0.800E-06
DAV:  12    -0.148723305750E+02   -0.22741E-05   -0.31028E-07  5432   0.102E-03    0.800E-06
DAV:  13    -0.148723352491E+02   -0.46742E-05   -0.39061E-07  5536   0.115E-03    0.502E-06
DAV:  14    -0.148723387455E+02   -0.34964E-05   -0.47099E-07  5440   0.108E-03    0.392E-06
DAV:  15    -0.148723423772E+02   -0.36316E-05   -0.52791E-07  5456   0.114E-03    0.362E-06
DAV:  16    -0.148723879464E+02   -0.45569E-04   -0.21934E-05  5432   0.153E-03    0.170E-03
DAV:  17    -0.148723460614E+02    0.41885E-04   -0.50955E-03  5168   0.211E-03    0.920E-06
DAV:  18    -0.148723503079E+02   -0.42466E-05   -0.15930E-06  5336   0.127E-03    0.659E-06
DAV:  19    -0.148723496421E+02    0.66584E-06   -0.30451E-06  5544   0.129E-03    0.309E-05
DAV:  20    -0.148723480668E+02    0.15753E-05   -0.27374E-05  5136   0.123E-03    0.709E-06
DAV:  21    -0.148723847459E+02   -0.36679E-04   -0.20321E-05  5296   0.101E-03    0.155E-03
DAV:  22    -0.148723508033E+02    0.33943E-04   -0.71201E-03  5160   0.234E-03    0.959E-06
DAV:  23    -0.148724220466E+02   -0.71243E-04   -0.23523E-05  5400   0.125E-03    0.274E-03
DAV:  24    -0.148723519856E+02    0.70061E-04   -0.19564E-02  5672   0.330E-03    0.127E-05
DAV:  25    -0.148724207856E+02   -0.68800E-04   -0.35981E-06  6120   0.181E-03    0.279E-03
DAV:  26    -0.148723594295E+02    0.61356E-04   -0.14584E-02  5288   0.300E-03    0.123E-05
DAV:  27    -0.148723585775E+02    0.85203E-06   -0.13931E-06  5440   0.157E-03    0.101E-05
DAV:  28    -0.148725276923E+02   -0.16911E-03   -0.57834E-05  5216   0.993E-04    0.639E-03
DAV:  29    -0.148723467365E+02    0.18096E-03   -0.89831E-02  6008   0.549E-03    0.261E-05
DAV:  30    -0.148723471417E+02   -0.40515E-06   -0.76063E-07  7000   0.161E-03    0.163E-05
DAV:  31    -0.148723487648E+02   -0.16231E-05   -0.17258E-07  6464   0.926E-04    0.130E-05
DAV:  32    -0.148723490458E+02   -0.28108E-06   -0.44637E-08  6568   0.504E-04    0.117E-05
DAV:  33    -0.148723506051E+02   -0.15593E-05   -0.53719E-08  5736   0.529E-04    0.105E-05
DAV:  34    -0.148723508121E+02   -0.20700E-06   -0.31801E-08  5768   0.422E-04    0.999E-06
DAV:  35    -0.148723522545E+02   -0.14424E-05   -0.50579E-08  5288   0.511E-04    0.946E-06
DAV:  36    -0.148723531105E+02   -0.85591E-06   -0.28955E-08  5320   0.410E-04    0.944E-06
DAV:  37    -0.148723537862E+02   -0.67571E-06   -0.22161E-08  5384   0.342E-04    0.930E-06
DAV:  38    -0.148723539746E+02   -0.18844E-06   -0.17426E-08  5232   0.315E-04    0.909E-06
DAV:  39    -0.148723540608E+02   -0.86171E-07   -0.10904E-08  5136   0.270E-04
  19 F= -.14872354E+02 E0= -.14868153E+02  d E =-.436095E-04  mag=     0.0000
       N       E                     dE             d eps       ncg     rms          rms(c)
DAV:   1    -0.148723540779E+02   -0.10333E-06   -0.10932E-08  5096   0.295E-04    0.895E-06
DAV:   2    -0.148723628059E+02   -0.87280E-05   -0.37733E-06  6848   0.175E-03    0.189E-05
DAV:   3    -0.148723633748E+02   -0.56887E-06   -0.66583E-07  5888   0.108E-03    0.103E-05
DAV:   4    -0.148723637034E+02   -0.32860E-06   -0.44178E-07  5560   0.866E-04    0.717E-06
DAV:   5    -0.148723640502E+02   -0.34681E-06   -0.36865E-07  5272   0.742E-04    0.559E-06
DAV:   6    -0.148723647976E+02   -0.74745E-06   -0.92745E-07  5232   0.991E-04    0.133E-05
DAV:   7    -0.148723656254E+02   -0.82778E-06   -0.10769E-05  5248   0.853E-04    0.931E-06
DAV:   8    -0.148723656722E+02   -0.46807E-07   -0.14016E-08  6064   0.221E-04
  20 F= -.14872366E+02 E0= -.14868164E+02  d E =-.552209E-04  mag=     0.0000
