 vasp.5.4.1 24Jun15 (build Dec 08 2016 12:24:04) complex                        
  
 executed on           IFC91_ompi date 2018.04.12  04:32:46
 running on   32 total cores
 distrk:  each k-point on   32 cores,    1 groups
 distr:  one band on NCORES_PER_BAND=   4 cores,    8 groups


--------------------------------------------------------------------------------------------------------


 INCAR:
 POTCAR:    PAW_PBE I 08Apr2002                   
 POTCAR:    PAW_PBE Zr_sv 04Jan2005               

 ----------------------------------------------------------------------------- 
|                                                                             |
|  ADVICE TO THIS USER RUNNING 'VASP/VAMP'   (HEAR YOUR MASTER'S VOICE ...):  |
|                                                                             |
|      You have switched on vdW-DFT.                                          |
|      This routine was written and supplied by Jiri Klimes.                  |
|      We recommed that you carefully read and cite the following             |
|      publication                                                            |
|      J. Klimes, D.R. Bowler, A. Michelides                                  |
|        J. Phys.: Cond Matt. 22 022201 (2010)                                |
|      J. Klimes, D.R. Bowler, A. Michelides                                  |
|        Phys. Rev. B. 83, 195131 (2011)                                      |
|      and references therein.                                                |
|                                                                             |
 ----------------------------------------------------------------------------- 

 POTCAR:    PAW_PBE I 08Apr2002                   
   VRHFIN =I : s2p5                                                             
   LEXCH  = PE                                                                  
   EATOM  =   315.8678 eV,   23.2156 Ry                                         
                                                                                
   TITEL  = PAW_PBE I 08Apr2002                                                 
   LULTRA =        F    use ultrasoft PP ?                                      
   IUNSCR =        1    unscreen: 0-lin 1-nonlin 2-no                           
   RPACOR =    2.200    partial core radius                                     
   POMASS =  126.904; ZVAL   =    7.000    mass and valenz                      
   RCORE  =    2.300    outmost cutoff radius                                   
   RWIGS  =    2.810; RWIGS  =    1.487    wigner-seitz radius (au A)           
   ENMAX  =  175.647; ENMIN  =  131.735 eV                                      
   ICORE  =        3    local potential                                         
   LCOR   =        T    correct aug charges                                     
   LPAW   =        T    paw PP                                                  
   EAUG   =  370.139                                                            
   DEXC   =    0.000                                                            
   RMAX   =    2.359    core radius for proj-oper                               
   RAUG   =    1.300    factor for augmentation sphere                          
   RDEP   =    2.392    radius for radial grids                                 
   RDEPT  =    2.170    core radius for aug-charge                              
                                                                                
   Atomic configuration                                                         
   13 entries                                                                   
     n  l   j            E        occ.                                          
     1  0  0.50    -32976.3739   2.0000                                         
     2  0  0.50     -5094.5933   2.0000                                         
     2  1  1.50     -4572.0131   6.0000                                         
     3  0  0.50     -1028.2813   2.0000                                         
     3  1  1.50      -859.0250   6.0000                                         
     3  2  2.50      -605.7620  10.0000                                         
     4  0  0.50      -180.5540   2.0000                                         
     4  1  1.50      -127.5306   6.0000                                         
     4  2  2.50       -50.2720  10.0000                                         
     5  0  0.50       -17.4058   2.0000                                         
     5  1  0.50        -7.0851   5.0000                                         
     5  2  1.50        -7.0750   0.0000                                         
     4  3  2.50        -7.0750   0.0000                                         
   Description                                                                  
     l       E           TYP  RCUT    TYP  RCUT                                 
     0    -17.4058016     23  2.300                                             
     0    -18.7663842     23  2.300                                             
     1     -7.0850686     23  2.300                                             
     1     -4.2150896     23  2.300                                             
     2     -7.0750295     23  2.300                                             
     3     -1.3605826     23  2.300                                             
  local pseudopotential read in
  partial core-charges read in
  partial kinetic energy density read in
  atomic valenz-charges read in
  non local Contribution for L=           0  read in
    real space projection operators read in
  non local Contribution for L=           0  read in
    real space projection operators read in
  non local Contribution for L=           1  read in
    real space projection operators read in
  non local Contribution for L=           1  read in
    real space projection operators read in
  non local Contribution for L=           2  read in
    real space projection operators read in
    PAW grid and wavefunctions read in
 
   number of l-projection  operators is LMAX  =           5
   number of lm-projection operators is LMMAX =          13
 
 POTCAR:    PAW_PBE Zr_sv 04Jan2005               
   VRHFIN =r: 4s4p5s4d                                                          
   LEXCH  = PE                                                                  
   EATOM  =  1284.2219 eV,   94.3876 Ry                                         
                                                                                
   TITEL  = PAW_PBE Zr_sv 04Jan2005                                             
   LULTRA =        F    use ultrasoft PP ?                                      
   IUNSCR =        1    unscreen: 0-lin 1-nonlin 2-no                           
   RPACOR =    2.200    partial core radius                                     
   POMASS =   91.224; ZVAL   =   12.000    mass and valenz                      
   RCORE  =    2.500    outmost cutoff radius                                   
   RWIGS  =    3.070; RWIGS  =    1.625    wigner-seitz radius (au A)           
   ENMAX  =  229.898; ENMIN  =  172.424 eV                                      
   ICORE  =        3    local potential                                         
   LCOR   =        T    correct aug charges                                     
   LPAW   =        T    paw PP                                                  
   EAUG   =  461.257                                                            
   DEXC   =    0.000                                                            
   RMAX   =    2.561    core radius for proj-oper                               
   RAUG   =    1.300    factor for augmentation sphere                          
   RDEP   =    2.597    radius for radial grids                                 
   RDEPT  =    2.007    core radius for aug-charge                              
                                                                                
   Atomic configuration                                                         
   11 entries                                                                   
     n  l   j            E        occ.                                          
     1  0  0.50    -17820.0161   2.0000                                         
     2  0  0.50     -2467.0882   2.0000                                         
     2  1  1.50     -2199.6095   6.0000                                         
     3  0  0.50      -402.4863   2.0000                                         
     3  1  1.50      -315.3675   6.0000                                         
     3  2  2.50      -172.4472  10.0000                                         
     4  0  0.50       -52.4146   2.0000                                         
     5  0  0.50        -3.8421   1.0000                                         
     4  1  1.50       -30.5054   6.0000                                         
     4  2  2.50        -2.3341   3.0000                                         
     4  3  2.50        -1.3606   0.0000                                         
   Description                                                                  
     l       E           TYP  RCUT    TYP  RCUT                                 
     0    -52.4145962     23  2.200                                             
     0     -3.8421270     23  2.500                                             
     1    -30.5053914     23  2.200                                             
     1     20.4087390     23  2.200                                             
     2     -2.3340816     23  2.500                                             
     2     -0.6120942     23  2.500                                             
     3     -4.0817478     23  2.500                                             
  local pseudopotential read in
  partial core-charges read in
  partial kinetic energy density read in
  atomic valenz-charges read in
  non local Contribution for L=           0  read in
    real space projection operators read in
  non local Contribution for L=           0  read in
    real space projection operators read in
  non local Contribution for L=           1  read in
    real space projection operators read in
  non local Contribution for L=           1  read in
    real space projection operators read in
  non local Contribution for L=           2  read in
    real space projection operators read in
  non local Contribution for L=           2  read in
    real space projection operators read in
    PAW grid and wavefunctions read in
 
   number of l-projection  operators is LMAX  =           6
   number of lm-projection operators is LMMAX =          18
 

 ----------------------------------------------------------------------------- 
|                                                                             |
|  ADVICE TO THIS USER RUNNING 'VASP/VAMP'   (HEAR YOUR MASTER'S VOICE ...):  |
|                                                                             |
|      You enforced a specific xc-type in the INCAR file,                     |
|      a different type was found on the POTCAR file                          |
|          I HOPE YOU KNOW, WHAT YOU ARE  DOING                               |
|                                                                             |
 ----------------------------------------------------------------------------- 

  PAW_PBE I 08Apr2002                   :
 energy of atom  1       EATOM= -315.8678
 kinetic energy error for atom=    0.0005 (will be added to EATOM!!)
  PAW_PBE Zr_sv 04Jan2005               :
 energy of atom  2       EATOM=-1284.2219
 kinetic energy error for atom=    0.0018 (will be added to EATOM!!)
 
 
 POSCAR: Surf-mp-570506                          
  positions in direct lattice
  No initial velocities read in
 exchange correlation table for  LEXCH =       42
   RHO(1)=    0.500       N(1)  =     2000
   RHO(2)=  100.500       N(2)  =     4000
 


--------------------------------------------------------------------------------------------------------


 ion  position               nearest neighbor table
   1  0.000  0.884  0.157-   5 3.00   5 3.00   6 3.15
   2  0.000  0.222  0.000-   6 2.93   5 2.96   5 2.96
   3  0.500  0.723  0.023-   6 3.00   6 3.00   5 3.15
   4  0.500  0.385  0.181-   5 2.92   6 2.96   6 2.96
   5  0.500  0.116  0.088-   4 2.92   2 2.96   2 2.96   1 3.00   1 3.00   3 3.15   6 3.21   6 3.21

   6  0.000  0.491  0.093-   2 2.93   4 2.96   4 2.96   3 3.00   3 3.00   1 3.15   5 3.21   5 3.21

 
  LATTYP: Found a simple orthorhombic cell.
 ALAT       =     3.7764090000
 B/A-ratio  =     1.8336840634
 C/A-ratio  =     6.4644939147
  
  Lattice vectors:
  
 A1 = (   3.7764090000,   0.0000000000,   0.0000000000)
 A2 = (   0.0000000000,   6.9247410000,   0.0000000000)
 A3 = (   0.0000000000,   0.0000000000,  24.4125730000)


Analysis of symmetry for initial positions (statically):
=====================================================================
 Subroutine PRICEL returns:
 Original cell was already a primitive cell.
 

 Routine SETGRP: Setting up the symmetry group for a 
 simple orthorhombic supercell.


 Subroutine GETGRP returns: Found  2 space group operations
 (whereof  2 operations were pure point group operations)
 out of a pool of  8 trial point group operations.


The static configuration has the point symmetry C_1h.


Analysis of symmetry for dynamics (positions and initial velocities):
=====================================================================
 Subroutine PRICEL returns:
 Original cell was already a primitive cell.
 

 Routine SETGRP: Setting up the symmetry group for a 
 simple orthorhombic supercell.


 Subroutine GETGRP returns: Found  2 space group operations
 (whereof  2 operations were pure point group operations)
 out of a pool of  8 trial point group operations.


The dynamic configuration has the point symmetry C_1h.


Analysis of magnetic symmetry:
=====================================================================
 Subroutine PRICEL returns:
 Original cell was already a primitive cell.
 

 Subroutine MAGSYM returns: Found  2 space group operations
 (whereof  2 operations were pure point group operations)
 out of a pool of  2 trial space group operations
 (whereof  2 operations were pure point group operations)
 and found also     1 'primitive' translations


The magnetic configuration has the point symmetry C_1h.
 
 
 KPOINTS: Automatic kpoint scheme                 

Automatic generation of k-mesh.
Space group operators:
 irot       det(A)        alpha          n_x          n_y          n_z        tau_x        tau_y        tau_z
    1     1.000000     0.000000     1.000000     0.000000     0.000000     0.000000     0.000000     0.000000
    2    -1.000000   180.000000     1.000000     0.000000     0.000000     0.000000     0.000000     0.000000
 
 Subroutine IBZKPT returns following result:
 ===========================================
 
 Found     45 irreducible k-points:
 
 Following reciprocal coordinates:
            Coordinates               Weight
  0.000000  0.000000  0.000000      1.000000
  0.058824  0.000000  0.000000      2.000000
  0.117647  0.000000  0.000000      2.000000
  0.176471  0.000000  0.000000      2.000000
  0.235294  0.000000  0.000000      2.000000
  0.294118  0.000000  0.000000      2.000000
  0.352941  0.000000  0.000000      2.000000
  0.411765  0.000000  0.000000      2.000000
  0.470588  0.000000  0.000000      2.000000
  0.000000  0.111111  0.000000      2.000000
  0.058824  0.111111  0.000000      4.000000
  0.117647  0.111111  0.000000      4.000000
  0.176471  0.111111  0.000000      4.000000
  0.235294  0.111111  0.000000      4.000000
  0.294118  0.111111  0.000000      4.000000
  0.352941  0.111111  0.000000      4.000000
  0.411765  0.111111  0.000000      4.000000
  0.470588  0.111111  0.000000      4.000000
  0.000000  0.222222  0.000000      2.000000
  0.058824  0.222222  0.000000      4.000000
  0.117647  0.222222  0.000000      4.000000
  0.176471  0.222222  0.000000      4.000000
  0.235294  0.222222  0.000000      4.000000
  0.294118  0.222222  0.000000      4.000000
  0.352941  0.222222  0.000000      4.000000
  0.411765  0.222222  0.000000      4.000000
  0.470588  0.222222  0.000000      4.000000
  0.000000  0.333333  0.000000      2.000000
  0.058824  0.333333  0.000000      4.000000
  0.117647  0.333333  0.000000      4.000000
  0.176471  0.333333  0.000000      4.000000
  0.235294  0.333333  0.000000      4.000000
  0.294118  0.333333  0.000000      4.000000
  0.352941  0.333333  0.000000      4.000000
  0.411765  0.333333  0.000000      4.000000
  0.470588  0.333333  0.000000      4.000000
  0.000000  0.444444  0.000000      2.000000
  0.058824  0.444444  0.000000      4.000000
  0.117647  0.444444  0.000000      4.000000
  0.176471  0.444444  0.000000      4.000000
  0.235294  0.444444  0.000000      4.000000
  0.294118  0.444444  0.000000      4.000000
  0.352941  0.444444  0.000000      4.000000
  0.411765  0.444444  0.000000      4.000000
  0.470588  0.444444  0.000000      4.000000
 
 Following cartesian coordinates:
            Coordinates               Weight
  0.000000  0.000000  0.000000      1.000000
  0.015577  0.000000  0.000000      2.000000
  0.031153  0.000000  0.000000      2.000000
  0.046730  0.000000  0.000000      2.000000
  0.062306  0.000000  0.000000      2.000000
  0.077883  0.000000  0.000000      2.000000
  0.093459  0.000000  0.000000      2.000000
  0.109036  0.000000  0.000000      2.000000
  0.124613  0.000000  0.000000      2.000000
  0.000000  0.016046  0.000000      2.000000
  0.015577  0.016046  0.000000      4.000000
  0.031153  0.016046  0.000000      4.000000
  0.046730  0.016046  0.000000      4.000000
  0.062306  0.016046  0.000000      4.000000
  0.077883  0.016046  0.000000      4.000000
  0.093459  0.016046  0.000000      4.000000
  0.109036  0.016046  0.000000      4.000000
  0.124613  0.016046  0.000000      4.000000
  0.000000  0.032091  0.000000      2.000000
  0.015577  0.032091  0.000000      4.000000
  0.031153  0.032091  0.000000      4.000000
  0.046730  0.032091  0.000000      4.000000
  0.062306  0.032091  0.000000      4.000000
  0.077883  0.032091  0.000000      4.000000
  0.093459  0.032091  0.000000      4.000000
  0.109036  0.032091  0.000000      4.000000
  0.124613  0.032091  0.000000      4.000000
  0.000000  0.048137  0.000000      2.000000
  0.015577  0.048137  0.000000      4.000000
  0.031153  0.048137  0.000000      4.000000
  0.046730  0.048137  0.000000      4.000000
  0.062306  0.048137  0.000000      4.000000
  0.077883  0.048137  0.000000      4.000000
  0.093459  0.048137  0.000000      4.000000
  0.109036  0.048137  0.000000      4.000000
  0.124613  0.048137  0.000000      4.000000
  0.000000  0.064182  0.000000      2.000000
  0.015577  0.064182  0.000000      4.000000
  0.031153  0.064182  0.000000      4.000000
  0.046730  0.064182  0.000000      4.000000
  0.062306  0.064182  0.000000      4.000000
  0.077883  0.064182  0.000000      4.000000
  0.093459  0.064182  0.000000      4.000000
  0.109036  0.064182  0.000000      4.000000
  0.124613  0.064182  0.000000      4.000000
 


--------------------------------------------------------------------------------------------------------




 Dimension of arrays:
   k-points           NKPTS =     45   k-points in BZ     NKDIM =     45   number of bands    NBANDS=     40
   number of dos      NEDOS =   5000   number of ions     NIONS =      6
   non local maximal  LDIM  =      6   non local SUM 2l+1 LMDIM =     18
   total plane-waves  NPLWV = 329280
   max r-space proj   IRMAX =      1   max aug-charges    IRDMAX=  30032
   dimension x,y,z NGX =    30 NGY =   56 NGZ =  196
   dimension x,y,z NGXF=    60 NGYF=  112 NGZF=  392
   support grid    NGXF=    60 NGYF=  112 NGZF=  392
   ions per type =               4   2
 NGX,Y,Z   is equivalent  to a cutoff of  13.21, 13.44, 13.35 a.u.
 NGXF,Y,Z  is equivalent  to a cutoff of  26.41, 26.89, 26.69 a.u.


 I would recommend the setting:
   dimension x,y,z NGX =    30 NGY =   55 NGZ =  195
 SYSTEM =  unknown system                          
 POSCAR =  Surf-mp-570506                          

 Startparameter for this run:
   NWRITE =      2    write-flag & timer
   PREC   = accura    normal or accurate (medium, high low for compatibility)
   ISTART =      0    job   : 0-new  1-cont  2-samecut
   ICHARG =      2    charge: 1-file 2-atom 10-const
   ISPIN  =      2    spin polarized calculation?
   LNONCOLLINEAR =      F non collinear calculations
   LSORBIT =      F    spin-orbit coupling
   INIWAV =      1    electr: 0-lowe 1-rand  2-diag
   LASPH  =      F    aspherical Exc in radial PAW
   METAGGA=      F    non-selfconsistent MetaGGA calc.

 Electronic Relaxation 1
   ENCUT  =  600.0 eV  44.10 Ry    6.64 a.u.   7.54 13.83 48.76*2*pi/ulx,y,z
   ENINI  =  600.0     initial cutoff
   ENAUG  =  461.3 eV  augmentation charge cutoff
   NELM   =    500;   NELMIN=  2; NELMDL= -5     # of ELM steps 
   EDIFF  = 0.1E-06   stopping-criterion for ELM
   LREAL  =      F    real-space projection
   NLSPLINE    = F    spline interpolate recip. space projectors
   LCOMPAT=      F    compatible to vasp.4.4
   GGA_COMPAT  = T    GGA compatible to vasp.4.4-vasp.4.6
   LMAXPAW     = -100 max onsite density
   LMAXMIX     =    2 max onsite mixed and CHGCAR
   VOSKOWN=      0    Vosko Wilk Nusair interpolation
   ROPT   =    0.00000   0.00000
 Ionic relaxation
   EDIFFG = -.1E-02   stopping-criterion for IOM
   NSW    =    500    number of steps for IOM
   NBLOCK =      1;   KBLOCK =    500    inner block; outer block 
   IBRION =      2    ionic relax: 0-MD 1-quasi-New 2-CG
   NFREE  =      1    steps in history (QN), initial steepest desc. (CG)
   ISIF   =      3    stress and relaxation
   IWAVPR =     11    prediction:  0-non 1-charg 2-wave 3-comb
   ISYM   =      2    0-nonsym 1-usesym 2-fastsym
   LCORR  =      T    Harris-Foulkes like correction to forces

   POTIM  = 0.5000    time-step for ionic-motion
   TEIN   =    0.0    initial temperature
   TEBEG  =    0.0;   TEEND  =   0.0 temperature during run
   SMASS  =  -3.00    Nose mass-parameter (am)
   estimated Nose-frequenzy (Omega)   =  0.10E-29 period in steps =****** mass=  -0.326E-27a.u.
   SCALEE = 1.0000    scale energy and forces
   NPACO  =    256;   APACO  = 16.0  distance and # of slots for P.C.
   PSTRESS=    0.0 pullay stress

  Mass of Ions in am
   POMASS = 126.90 91.22
  Ionic Valenz
   ZVAL   =   7.00 12.00
  Atomic Wigner-Seitz radii
   RWIGS  =  -1.00 -1.00
  virtual crystal weights 
   VCA    =   1.00  1.00
   NELECT =      52.0000    total number of electrons
   NUPDOWN=      -1.0000    fix difference up-down

 DOS related values:
   EMIN   =  10.00;   EMAX   =-10.00  energy-range for DOS
   EFERMI =   0.00
   ISMEAR =     0;   SIGMA  =   0.20  broadening in eV -4-tet -1-fermi 0-gaus

 Electronic relaxation 2 (details)
   IALGO  =     38    algorithm
   LDIAG  =      T    sub-space diagonalisation (order eigenvalues)
   LSUBROT=      F    optimize rotation matrix (better conditioning)
   TURBO    =      0    0=normal 1=particle mesh
   IRESTART =      0    0=no restart 2=restart with 2 vectors
   NREBOOT  =      0    no. of reboots
   NMIN     =      0    reboot dimension
   EREF     =   0.00    reference energy to select bands
   IMIX   =      4    mixing-type and parameters
     AMIX     =   0.40;   BMIX     =  1.00
     AMIX_MAG =   1.60;   BMIX_MAG =  1.00
     AMIN     =   0.10
     WC   =   100.;   INIMIX=   1;  MIXPRE=   1;  MAXMIX= -45

 Intra band minimization:
   WEIMIN = 0.0010     energy-eigenvalue tresh-hold
   EBREAK =  0.63E-09  absolut break condition
   DEPER  =   0.30     relativ break condition  

   TIME   =   0.40     timestep for ELM

  volume/ion in A,a.u.               =     106.40       718.03
  Fermi-wavevector in a.u.,A,eV,Ry     =   0.709650  1.341043  6.851927  0.503602
  Thomas-Fermi vector in A             =   1.796288
 
 Write flags
   LWAVE  =      F    write WAVECAR
   LCHARG =      F    write CHGCAR
   LVTOT  =      F    write LOCPOT, total local potential
   LVHAR  =      T    write LOCPOT, Hartree potential only
   LELF   =      F    write electronic localiz. function (ELF)
   LORBIT =     11    0 simple, 1 ext, 2 COOP (PROOUT)


 Dipole corrections
   LMONO  =      F    monopole corrections only (constant potential shift)
   LDIPOL =      F    correct potential (dipole corrections)
   IDIPOL =      0    1-x, 2-y, 3-z, 4-all directions 
   EPSILON=  1.0000000 bulk dielectric constant

 Exchange correlation treatment:
   GGA     =    BO    GGA type
   LEXCH   =    42    internal setting for exchange type
   VOSKOWN=      0    Vosko Wilk Nusair interpolation
   LHFCALC =     F    Hartree Fock is set to
   LHFONE  =     F    Hartree Fock one center treatment
   AEXX    =    0.0000 exact exchange contribution

 vdW DFT:
   LUSE_VDW   =     T    switch on vdW DFT
   Zab_VDW    =-.8491    correlation parameter
   PARAM1     =0.1833
   PARAM2     =0.2200
   PARAM3     =0.0000

 Linear response parameters
   LEPSILON=     F    determine dielectric tensor
   LRPA    =     F    only Hartree local field effects (RPA)
   LNABLA  =     F    use nabla operator in PAW spheres
   LVEL    =     F    velocity operator in full k-point grid
   LINTERFAST=   F  fast interpolation
   KINTER  =     0    interpolate to denser k-point grid
   CSHIFT  =0.1000    complex shift for real part using Kramers Kronig
   OMEGAMAX=  -1.0    maximum frequency
   DEG_THRESHOLD= 0.2000000E-02 threshold for treating states as degnerate
   RTIME   =    0.100 relaxation time in fs

 Orbital magnetization related:
   ORBITALMAG=     F  switch on orbital magnetization
   LCHIMAG   =     F  perturbation theory with respect to B field
   DQ        =  0.001000  dq finite difference perturbation B field



--------------------------------------------------------------------------------------------------------


 conjugate gradient relaxation of ions
 charge density and potential will be updated during run
 spin polarized calculation
 Variant of blocked Davidson
 Davidson routine will perform the subspace rotation
 perform sub-space diagonalisation
    after iterative eigenvector-optimisation
 modified Broyden-mixing scheme, WC =      100.0
 initial mixing is a Kerker type mixing with AMIX =  0.4000 and BMIX =      1.0000
 Hartree-type preconditioning will be used
 using additional bands           14
 reciprocal scheme for non local part
 use partial core corrections
 calculate Harris-corrections to forces 
   (improved forces if not selfconsistent)
 use gradient corrections 
 use of overlap-Matrix (Vanderbilt PP)
 Gauss-broadening in eV      SIGMA  =   0.20


--------------------------------------------------------------------------------------------------------


  energy-cutoff  :      600.00
  volume of cell :      638.40
      direct lattice vectors                 reciprocal lattice vectors
     3.776409000  0.000000000  0.000000000     0.264801826  0.000000000  0.000000000
     0.000000000  6.924741000  0.000000000     0.000000000  0.144409733  0.000000000
     0.000000000  0.000000000 24.412573000     0.000000000  0.000000000  0.040962499

  length of vectors
     3.776409000  6.924741000 24.412573000     0.264801826  0.144409733  0.040962499


 
 k-points in units of 2pi/SCALE and weight: Automatic kpoint scheme                 
   0.00000000  0.00000000  0.00000000       0.007
   0.01557658  0.00000000  0.00000000       0.013
   0.03115316  0.00000000  0.00000000       0.013
   0.04672973  0.00000000  0.00000000       0.013
   0.06230631  0.00000000  0.00000000       0.013
   0.07788289  0.00000000  0.00000000       0.013
   0.09345947  0.00000000  0.00000000       0.013
   0.10903605  0.00000000  0.00000000       0.013
   0.12461262  0.00000000  0.00000000       0.013
   0.00000000  0.01604553  0.00000000       0.013
   0.01557658  0.01604553  0.00000000       0.026
   0.03115316  0.01604553  0.00000000       0.026
   0.04672973  0.01604553  0.00000000       0.026
   0.06230631  0.01604553  0.00000000       0.026
   0.07788289  0.01604553  0.00000000       0.026
   0.09345947  0.01604553  0.00000000       0.026
   0.10903605  0.01604553  0.00000000       0.026
   0.12461262  0.01604553  0.00000000       0.026
   0.00000000  0.03209105  0.00000000       0.013
   0.01557658  0.03209105  0.00000000       0.026
   0.03115316  0.03209105  0.00000000       0.026
   0.04672973  0.03209105  0.00000000       0.026
   0.06230631  0.03209105  0.00000000       0.026
   0.07788289  0.03209105  0.00000000       0.026
   0.09345947  0.03209105  0.00000000       0.026
   0.10903605  0.03209105  0.00000000       0.026
   0.12461262  0.03209105  0.00000000       0.026
   0.00000000  0.04813658  0.00000000       0.013
   0.01557658  0.04813658  0.00000000       0.026
   0.03115316  0.04813658  0.00000000       0.026
   0.04672973  0.04813658  0.00000000       0.026
   0.06230631  0.04813658  0.00000000       0.026
   0.07788289  0.04813658  0.00000000       0.026
   0.09345947  0.04813658  0.00000000       0.026
   0.10903605  0.04813658  0.00000000       0.026
   0.12461262  0.04813658  0.00000000       0.026
   0.00000000  0.06418210  0.00000000       0.013
   0.01557658  0.06418210  0.00000000       0.026
   0.03115316  0.06418210  0.00000000       0.026
   0.04672973  0.06418210  0.00000000       0.026
   0.06230631  0.06418210  0.00000000       0.026
   0.07788289  0.06418210  0.00000000       0.026
   0.09345947  0.06418210  0.00000000       0.026
   0.10903605  0.06418210  0.00000000       0.026
   0.12461262  0.06418210  0.00000000       0.026
 
 k-points in reciprocal lattice and weights: Automatic kpoint scheme                 
   0.00000000  0.00000000  0.00000000       0.007
   0.05882353  0.00000000  0.00000000       0.013
   0.11764706  0.00000000  0.00000000       0.013
   0.17647059  0.00000000  0.00000000       0.013
   0.23529412  0.00000000  0.00000000       0.013
   0.29411765  0.00000000  0.00000000       0.013
   0.35294118  0.00000000  0.00000000       0.013
   0.41176471  0.00000000  0.00000000       0.013
   0.47058824  0.00000000  0.00000000       0.013
   0.00000000  0.11111111  0.00000000       0.013
   0.05882353  0.11111111  0.00000000       0.026
   0.11764706  0.11111111  0.00000000       0.026
   0.17647059  0.11111111  0.00000000       0.026
   0.23529412  0.11111111  0.00000000       0.026
   0.29411765  0.11111111  0.00000000       0.026
   0.35294118  0.11111111  0.00000000       0.026
   0.41176471  0.11111111  0.00000000       0.026
   0.47058824  0.11111111  0.00000000       0.026
   0.00000000  0.22222222  0.00000000       0.013
   0.05882353  0.22222222  0.00000000       0.026
   0.11764706  0.22222222  0.00000000       0.026
   0.17647059  0.22222222  0.00000000       0.026
   0.23529412  0.22222222  0.00000000       0.026
   0.29411765  0.22222222  0.00000000       0.026
   0.35294118  0.22222222  0.00000000       0.026
   0.41176471  0.22222222  0.00000000       0.026
   0.47058824  0.22222222  0.00000000       0.026
   0.00000000  0.33333333  0.00000000       0.013
   0.05882353  0.33333333  0.00000000       0.026
   0.11764706  0.33333333  0.00000000       0.026
   0.17647059  0.33333333  0.00000000       0.026
   0.23529412  0.33333333  0.00000000       0.026
   0.29411765  0.33333333  0.00000000       0.026
   0.35294118  0.33333333  0.00000000       0.026
   0.41176471  0.33333333  0.00000000       0.026
   0.47058824  0.33333333  0.00000000       0.026
   0.00000000  0.44444444  0.00000000       0.013
   0.05882353  0.44444444  0.00000000       0.026
   0.11764706  0.44444444  0.00000000       0.026
   0.17647059  0.44444444  0.00000000       0.026
   0.23529412  0.44444444  0.00000000       0.026
   0.29411765  0.44444444  0.00000000       0.026
   0.35294118  0.44444444  0.00000000       0.026
   0.41176471  0.44444444  0.00000000       0.026
   0.47058824  0.44444444  0.00000000       0.026
 
 position of ions in fractional coordinates (direct lattice) 
   0.00000000  0.88421600  0.15737900
   0.00000000  0.22222400  0.00000000
   0.50000000  0.72302600  0.02335100
   0.50000000  0.38467400  0.18075000
   0.50000000  0.11643600  0.08820500
   0.00000000  0.49084600  0.09255400
 
 position of ions in cartesian coordinates  (Angst):
   0.00000000  6.12296679  3.84202633
   0.00000000  1.53884364  0.00000000
   1.88820450  5.00676779  0.57005799
   1.88820450  2.66376782  4.41257257
   1.88820450  0.80628914  2.15331100
   0.00000000  3.39898142  2.25948128
 


--------------------------------------------------------------------------------------------------------


 k-point  1 :   0.0000 0.0000 0.0000  plane waves:   21361
 k-point  2 :   0.0588 0.0000 0.0000  plane waves:   21359
 k-point  3 :   0.1176 0.0000 0.0000  plane waves:   21335
 k-point  4 :   0.1765 0.0000 0.0000  plane waves:   21305
 k-point  5 :   0.2353 0.0000 0.0000  plane waves:   21291
 k-point  6 :   0.2941 0.0000 0.0000  plane waves:   21303
 k-point  7 :   0.3529 0.0000 0.0000  plane waves:   21315
 k-point  8 :   0.4118 0.0000 0.0000  plane waves:   21243
 k-point  9 :   0.4706 0.0000 0.0000  plane waves:   21210
 k-point 10 :   0.0000 0.1111 0.0000  plane waves:   21363
 k-point 11 :   0.0588 0.1111 0.0000  plane waves:   21365
 k-point 12 :   0.1176 0.1111 0.0000  plane waves:   21334
 k-point 13 :   0.1765 0.1111 0.0000  plane waves:   21317
 k-point 14 :   0.2353 0.1111 0.0000  plane waves:   21299
 k-point 15 :   0.2941 0.1111 0.0000  plane waves:   21288
 k-point 16 :   0.3529 0.1111 0.0000  plane waves:   21295
 k-point 17 :   0.4118 0.1111 0.0000  plane waves:   21260
 k-point 18 :   0.4706 0.1111 0.0000  plane waves:   21206
 k-point 19 :   0.0000 0.2222 0.0000  plane waves:   21346
 k-point 20 :   0.0588 0.2222 0.0000  plane waves:   21332
 k-point 21 :   0.1176 0.2222 0.0000  plane waves:   21348
 k-point 22 :   0.1765 0.2222 0.0000  plane waves:   21320
 k-point 23 :   0.2353 0.2222 0.0000  plane waves:   21314
 k-point 24 :   0.2941 0.2222 0.0000  plane waves:   21322
 k-point 25 :   0.3529 0.2222 0.0000  plane waves:   21279
 k-point 26 :   0.4118 0.2222 0.0000  plane waves:   21248
 k-point 27 :   0.4706 0.2222 0.0000  plane waves:   21250
 k-point 28 :   0.0000 0.3333 0.0000  plane waves:   21350
 k-point 29 :   0.0588 0.3333 0.0000  plane waves:   21346
 k-point 30 :   0.1176 0.3333 0.0000  plane waves:   21341
 k-point 31 :   0.1765 0.3333 0.0000  plane waves:   21353
 k-point 32 :   0.2353 0.3333 0.0000  plane waves:   21336
 k-point 33 :   0.2941 0.3333 0.0000  plane waves:   21302
 k-point 34 :   0.3529 0.3333 0.0000  plane waves:   21285
 k-point 35 :   0.4118 0.3333 0.0000  plane waves:   21231
 k-point 36 :   0.4706 0.3333 0.0000  plane waves:   21236
 k-point 37 :   0.0000 0.4444 0.0000  plane waves:   21356
 k-point 38 :   0.0588 0.4444 0.0000  plane waves:   21360
 k-point 39 :   0.1176 0.4444 0.0000  plane waves:   21349
 k-point 40 :   0.1765 0.4444 0.0000  plane waves:   21344
 k-point 41 :   0.2353 0.4444 0.0000  plane waves:   21338
 k-point 42 :   0.2941 0.4444 0.0000  plane waves:   21306
 k-point 43 :   0.3529 0.4444 0.0000  plane waves:   21271
 k-point 44 :   0.4118 0.4444 0.0000  plane waves:   21271
 k-point 45 :   0.4706 0.4444 0.0000  plane waves:   21238

 maximum and minimum number of plane-waves per node :      5371     5282

 maximum number of plane-waves:     21365
 maximum index in each direction: 
   IXMAX=    7   IYMAX=   13   IZMAX=   48
   IXMIN=   -8   IYMIN=  -14   IZMIN=  -48

 WARNING: aliasing errors must be expected set NGX to  32 to avoid them
 NGY is ok and might be reduce to  56
 NGZ is ok and might be reduce to 194
 aliasing errors are usually negligible using standard VASP settings
 and one can safely disregard these warnings

 parallel 3D FFT for wavefunctions:
    minimum data exchange during FFTs selected (reduces bandwidth)
 parallel 3D FFT for charge:
    minimum data exchange during FFTs selected (reduces bandwidth)


 total amount of memory used by VASP on root node   158776. kBytes
========================================================================

   base      :      30000. kBytes
   nonl-proj :      70189. kBytes
   fftplans  :       5496. kBytes
   grid      :      14092. kBytes
   one-center:         62. kBytes
   wavefun   :      38937. kBytes
 
     INWAV:  cpu time    0.0000: real time    0.0000
 Broyden mixing: mesh for mixing (old mesh)
   NGX = 15   NGY = 27   NGZ = 97
  (NGX  = 60   NGY  =112   NGZ  =392)
  gives a total of  39285 points

 initial charge density was supplied:
 charge density of overlapping atoms calculated
 number of electron      52.0000000 magnetization       6.0000000
 keeping initial charge density in first step


--------------------------------------------------------------------------------------------------------


 Maximum index for augmentation-charges         1154 (set IRDMAX)


--------------------------------------------------------------------------------------------------------


 First call to EWALD:  gamma=   0.206
 Maximum number of real-space cells 6x 3x 1
 Maximum number of reciprocal cells 1x 2x 7

 FEWALD executed in parallel
    FEWALD:  cpu time    0.0023: real time    0.0023


----------------------------------------- Iteration    1(   1)  ---------------------------------------


vdW kernel read from vdw_kernel.bindat
  0.0000  0.2424  0.5071  0.7962  1.1119  1.4567  1.8333  2.2446  2.6937  3.1842
  3.7199  4.3049  4.9438  5.6415  6.4036  7.2358  8.1446  9.1372 10.2212 11.4050
 12.6979 14.1099 15.6519 17.3360 19.1751 21.1837 23.3773 25.7729 28.3892 31.2465
 34.3669 37.7748 41.4965 45.5611 50.0000
 
    POTLOK:  cpu time    5.0004: real time    5.0010
    SETDIJ:  cpu time    0.0197: real time    0.0197
     EDDAV:  cpu time   34.6601: real time   34.6716
       DOS:  cpu time    0.0130: real time    0.0130
    --------------------------------------------
      LOOP:  cpu time   39.6982: real time   39.7152

 eigenvalue-minimisations  :  8416
 total energy-change (2. order) : 0.4636113E+03  (-0.2074300E+04)
 number of electron      52.0000000 magnetization       6.0000000
 augmentation part       52.0000000 magnetization       6.0000000

 Free energy of the ion-electron system (eV)
  ---------------------------------------------------
  alpha Z        PSCENC =        24.23203486
  Ewald energy   TEWEN  =      8851.87609819
  -Hartree energ DENC   =    -12136.47711777
  -exchange      EXHF   =         0.00000000
  -V(xc)+E(xc)   XCENC  =        44.74840103
  PAW double counting   =      3190.64181798    -3046.06093630
  entropy T*S    EENTRO =        -0.10615658
  eigenvalues    EBANDS =      -319.56102265
  atomic energy  EATOM  =      3854.31816658
  Solvation  Ediel_sol  =         0.00000000
  ---------------------------------------------------
  free energy    TOTEN  =       463.61128533 eV

  energy without entropy =      463.71744191  energy(sigma->0) =      463.66436362


--------------------------------------------------------------------------------------------------------




----------------------------------------- Iteration    1(   2)  ---------------------------------------


     EDDAV:  cpu time   40.1800: real time   40.1816
       DOS:  cpu time    0.0137: real time    0.0137
    --------------------------------------------
      LOOP:  cpu time   40.1957: real time   40.2067

 eigenvalue-minimisations  : 10120
 total energy-change (2. order) :-0.4215337E+03  (-0.4066988E+03)
 number of electron      52.0000000 magnetization       6.0000000
 augmentation part       52.0000000 magnetization       6.0000000

 Free energy of the ion-electron system (eV)
  ---------------------------------------------------
  alpha Z        PSCENC =        24.23203486
  Ewald energy   TEWEN  =      8851.87609819
  -Hartree energ DENC   =    -12136.47711777
  -exchange      EXHF   =         0.00000000
  -V(xc)+E(xc)   XCENC  =        44.74840103
  PAW double counting   =      3190.64181798    -3046.06093630
  entropy T*S    EENTRO =        -0.02540186
  eigenvalues    EBANDS =      -741.17545393
  atomic energy  EATOM  =      3854.31816658
  Solvation  Ediel_sol  =         0.00000000
  ---------------------------------------------------
  free energy    TOTEN  =        42.07760877 eV

  energy without entropy =       42.10301063  energy(sigma->0) =       42.09030970


--------------------------------------------------------------------------------------------------------




----------------------------------------- Iteration    1(   3)  ---------------------------------------


     EDDAV:  cpu time   41.0893: real time   41.0901
       DOS:  cpu time    0.0138: real time    0.0138
    --------------------------------------------
      LOOP:  cpu time   41.1051: real time   41.1282

 eigenvalue-minimisations  : 10464
 total energy-change (2. order) :-0.5343044E+02  (-0.5311636E+02)
 number of electron      52.0000000 magnetization       6.0000000
 augmentation part       52.0000000 magnetization       6.0000000

 Free energy of the ion-electron system (eV)
  ---------------------------------------------------
  alpha Z        PSCENC =        24.23203486
  Ewald energy   TEWEN  =      8851.87609819
  -Hartree energ DENC   =    -12136.47711777
  -exchange      EXHF   =         0.00000000
  -V(xc)+E(xc)   XCENC  =        44.74840103
  PAW double counting   =      3190.64181798    -3046.06093630
  entropy T*S    EENTRO =        -0.03603483
  eigenvalues    EBANDS =      -794.59526345
  atomic energy  EATOM  =      3854.31816658
  Solvation  Ediel_sol  =         0.00000000
  ---------------------------------------------------
  free energy    TOTEN  =       -11.35283372 eV

  energy without entropy =      -11.31679889  energy(sigma->0) =      -11.33481631


--------------------------------------------------------------------------------------------------------




----------------------------------------- Iteration    1(   4)  ---------------------------------------


     EDDAV:  cpu time   46.2820: real time   46.2827
       DOS:  cpu time    0.0137: real time    0.0137
    --------------------------------------------
      LOOP:  cpu time   46.2978: real time   46.3331

 eigenvalue-minimisations  : 12024
 total energy-change (2. order) :-0.4010590E+01  (-0.3986464E+01)
 number of electron      52.0000000 magnetization       6.0000000
 augmentation part       52.0000000 magnetization       6.0000000

 Free energy of the ion-electron system (eV)
  ---------------------------------------------------
  alpha Z        PSCENC =        24.23203486
  Ewald energy   TEWEN  =      8851.87609819
  -Hartree energ DENC   =    -12136.47711777
  -exchange      EXHF   =         0.00000000
  -V(xc)+E(xc)   XCENC  =        44.74840103
  PAW double counting   =      3190.64181798    -3046.06093630
  entropy T*S    EENTRO =        -0.03420699
  eigenvalues    EBANDS =      -798.60768151
  atomic energy  EATOM  =      3854.31816658
  Solvation  Ediel_sol  =         0.00000000
  ---------------------------------------------------
  free energy    TOTEN  =       -15.36342393 eV

  energy without entropy =      -15.32921695  energy(sigma->0) =      -15.34632044


--------------------------------------------------------------------------------------------------------




----------------------------------------- Iteration    1(   5)  ---------------------------------------


     EDDAV:  cpu time   39.1968: real time   39.1986
       DOS:  cpu time    0.0140: real time    0.0140
    CHARGE:  cpu time    1.4978: real time    1.4978
    MIXING:  cpu time    0.0070: real time    0.0070
    --------------------------------------------
      LOOP:  cpu time   40.7181: real time   40.7440

 eigenvalue-minimisations  :  9904
 total energy-change (2. order) :-0.1010990E+00  (-0.1009638E+00)
 number of electron      52.0000000 magnetization       5.4207889
 augmentation part       -5.7180294 magnetization       5.2809522

 Broyden mixing:
  rms(total) = 0.18026E+01    rms(broyden)= 0.18026E+01
  rms(prec ) = 0.18174E+01
  weight for this iteration     100.00

 Free energy of the ion-electron system (eV)
  ---------------------------------------------------
  alpha Z        PSCENC =        24.23203486
  Ewald energy   TEWEN  =      8851.87609819
  -Hartree energ DENC   =    -12136.47711777
  -exchange      EXHF   =         0.00000000
  -V(xc)+E(xc)   XCENC  =        44.74840103
  PAW double counting   =      3190.64181798    -3046.06093630
  entropy T*S    EENTRO =        -0.03381909
  eigenvalues    EBANDS =      -798.70916840
  atomic energy  EATOM  =      3854.31816658
  Solvation  Ediel_sol  =         0.00000000
  ---------------------------------------------------
  free energy    TOTEN  =       -15.46452293 eV

  energy without entropy =      -15.43070384  energy(sigma->0) =      -15.44761338


--------------------------------------------------------------------------------------------------------




----------------------------------------- Iteration    1(   6)  ---------------------------------------


    POTLOK:  cpu time    4.4588: real time    4.4592
    SETDIJ:  cpu time    0.0198: real time    0.0198
     EDDAV:  cpu time   35.3530: real time   35.3566
       DOS:  cpu time    0.0140: real time    0.0140
    CHARGE:  cpu time    1.4502: real time    1.4507
    MIXING:  cpu time    0.0070: real time    0.0070
    --------------------------------------------
      LOOP:  cpu time   41.3054: real time   41.3187

 eigenvalue-minimisations  :  8704
 total energy-change (2. order) : 0.1593763E+01  (-0.3682083E+00)
 number of electron      52.0000000 magnetization       4.7947902
 augmentation part       -5.4918850 magnetization       4.3840444

 Broyden mixing:
  rms(total) = 0.88477E+00    rms(broyden)= 0.88477E+00
  rms(prec ) = 0.89038E+00
  weight for this iteration     100.00

 eigenvalues of (default mixing * dielectric matrix)
  average eigenvalue GAMMA=   0.9380
  0.9380

 Free energy of the ion-electron system (eV)
  ---------------------------------------------------
  alpha Z        PSCENC =        24.23203486
  Ewald energy   TEWEN  =      8851.87609819
  -Hartree energ DENC   =    -12122.93299863
  -exchange      EXHF   =         0.00000000
  -V(xc)+E(xc)   XCENC  =        44.50019816
  PAW double counting   =      3796.57076010    -3655.99542372
  entropy T*S    EENTRO =        -0.06288818
  eigenvalues    EBANDS =      -806.37670682
  atomic energy  EATOM  =      3854.31816658
  Solvation  Ediel_sol  =         0.00000000
  ---------------------------------------------------
  free energy    TOTEN  =       -13.87075947 eV

  energy without entropy =      -13.80787129  energy(sigma->0) =      -13.83931538


--------------------------------------------------------------------------------------------------------




----------------------------------------- Iteration    1(   7)  ---------------------------------------


    POTLOK:  cpu time    4.4680: real time    4.4688
    SETDIJ:  cpu time    0.0189: real time    0.0189
     EDDAV:  cpu time   37.1814: real time   37.1833
       DOS:  cpu time    0.0135: real time    0.0135
    CHARGE:  cpu time    1.4194: real time    1.4194
    MIXING:  cpu time    0.0070: real time    0.0070
    --------------------------------------------
      LOOP:  cpu time   43.1109: real time   43.1369

 eigenvalue-minimisations  :  9160
 total energy-change (2. order) :-0.1988117E+00  (-0.7337217E-01)
 number of electron      52.0000000 magnetization       4.3498511
 augmentation part       -5.4883958 magnetization       4.1095204

 Broyden mixing:
  rms(total) = 0.58768E+00    rms(broyden)= 0.58768E+00
  rms(prec ) = 0.58922E+00
  weight for this iteration     100.00

 eigenvalues of (default mixing * dielectric matrix)
  average eigenvalue GAMMA=   0.9938
  1.4180  0.5696

 Free energy of the ion-electron system (eV)
  ---------------------------------------------------
  alpha Z        PSCENC =        24.23203486
  Ewald energy   TEWEN  =      8851.87609819
  -Hartree energ DENC   =    -12126.42792282
  -exchange      EXHF   =         0.00000000
  -V(xc)+E(xc)   XCENC  =        44.32079203
  PAW double counting   =      4232.92961772    -4094.08502688
  entropy T*S    EENTRO =        -0.05213068
  eigenvalues    EBANDS =      -801.18120016
  atomic energy  EATOM  =      3854.31816658
  Solvation  Ediel_sol  =         0.00000000
  ---------------------------------------------------
  free energy    TOTEN  =       -14.06957116 eV

  energy without entropy =      -14.01744048  energy(sigma->0) =      -14.04350582


--------------------------------------------------------------------------------------------------------




----------------------------------------- Iteration    1(   8)  ---------------------------------------


    POTLOK:  cpu time    4.4684: real time    4.4682
    SETDIJ:  cpu time    0.0194: real time    0.0194
     EDDAV:  cpu time   37.0539: real time   37.0581
       DOS:  cpu time    0.0136: real time    0.0136
    CHARGE:  cpu time    1.4639: real time    1.4638
    MIXING:  cpu time    0.0071: real time    0.0071
    --------------------------------------------
      LOOP:  cpu time   43.0286: real time   43.0500

 eigenvalue-minimisations  :  9216
 total energy-change (2. order) :-0.6640443E-01  (-0.9835565E-02)
 number of electron      52.0000000 magnetization       3.8150916
 augmentation part       -5.5064435 magnetization       3.6129236

 Broyden mixing:
  rms(total) = 0.30374E+00    rms(broyden)= 0.30374E+00
  rms(prec ) = 0.30466E+00
  weight for this iteration     100.00

 eigenvalues of (default mixing * dielectric matrix)
  average eigenvalue GAMMA=   1.1226
  1.9347  0.8192  0.6138

 Free energy of the ion-electron system (eV)
  ---------------------------------------------------
  alpha Z        PSCENC =        24.23203486
  Ewald energy   TEWEN  =      8851.87609819
  -Hartree energ DENC   =    -12129.92108347
  -exchange      EXHF   =         0.00000000
  -V(xc)+E(xc)   XCENC  =        44.36756757
  PAW double counting   =      4424.07041819    -4285.66924417
  entropy T*S    EENTRO =        -0.04545163
  eigenvalues    EBANDS =      -797.36448170
  atomic energy  EATOM  =      3854.31816658
  Solvation  Ediel_sol  =         0.00000000
  ---------------------------------------------------
  free energy    TOTEN  =       -14.13597559 eV

  energy without entropy =      -14.09052395  energy(sigma->0) =      -14.11324977


--------------------------------------------------------------------------------------------------------




----------------------------------------- Iteration    1(   9)  ---------------------------------------


    POTLOK:  cpu time    4.4873: real time    4.4875
    SETDIJ:  cpu time    0.0193: real time    0.0193
     EDDAV:  cpu time   36.0089: real time   36.0129
       DOS:  cpu time    0.0140: real time    0.0140
    CHARGE:  cpu time    1.4994: real time    1.4997
    MIXING:  cpu time    0.0072: real time    0.0072
    --------------------------------------------
      LOOP:  cpu time   42.0391: real time   42.0556

 eigenvalue-minimisations  :  8584
 total energy-change (2. order) :-0.9827845E-01  (-0.2483752E-02)
 number of electron      52.0000000 magnetization       2.9049952
 augmentation part       -5.5161107 magnetization       2.7866360

 Broyden mixing:
  rms(total) = 0.24325E+00    rms(broyden)= 0.24325E+00
  rms(prec ) = 0.24360E+00
  weight for this iteration     100.00

 eigenvalues of (default mixing * dielectric matrix)
  average eigenvalue GAMMA=   1.2568
  2.3363  1.2881  0.8004  0.6025

 Free energy of the ion-electron system (eV)
  ---------------------------------------------------
  alpha Z        PSCENC =        24.23203486
  Ewald energy   TEWEN  =      8851.87609819
  -Hartree energ DENC   =    -12133.50110509
  -exchange      EXHF   =         0.00000000
  -V(xc)+E(xc)   XCENC  =        44.43772366
  PAW double counting   =      4541.13945061    -4402.80760633
  entropy T*S    EENTRO =        -0.03376717
  eigenvalues    EBANDS =      -793.89524934
  atomic energy  EATOM  =      3854.31816658
  Solvation  Ediel_sol  =         0.00000000
  ---------------------------------------------------
  free energy    TOTEN  =       -14.23425403 eV

  energy without entropy =      -14.20048687  energy(sigma->0) =      -14.21737045


--------------------------------------------------------------------------------------------------------




----------------------------------------- Iteration    1(  10)  ---------------------------------------


    POTLOK:  cpu time    4.4527: real time    4.4525
    SETDIJ:  cpu time    0.0188: real time    0.0188
     EDDAV:  cpu time   34.0914: real time   34.0976
       DOS:  cpu time    0.0139: real time    0.0139
    CHARGE:  cpu time    1.4660: real time    1.4666
    MIXING:  cpu time    0.0083: real time    0.0083
    --------------------------------------------
      LOOP:  cpu time   40.0538: real time   40.0689

 eigenvalue-minimisations  :  7984
 total energy-change (2. order) :-0.2098430E+00  (-0.3355876E-02)
 number of electron      52.0000000 magnetization       1.8634505
 augmentation part       -5.5202659 magnetization       1.8349149

 Broyden mixing:
  rms(total) = 0.18686E+00    rms(broyden)= 0.18686E+00
  rms(prec ) = 0.18694E+00
  weight for this iteration     100.00

 eigenvalues of (default mixing * dielectric matrix)
  average eigenvalue GAMMA=   1.3831
  3.0102  1.7147  0.6112  0.8245  0.7548

 Free energy of the ion-electron system (eV)
  ---------------------------------------------------
  alpha Z        PSCENC =        24.23203486
  Ewald energy   TEWEN  =      8851.87609819
  -Hartree energ DENC   =    -12137.56213330
  -exchange      EXHF   =         0.00000000
  -V(xc)+E(xc)   XCENC  =        44.47098462
  PAW double counting   =      4614.14924580    -4475.71985016
  entropy T*S    EENTRO =        -0.01779760
  eigenvalues    EBANDS =      -790.19084599
  atomic energy  EATOM  =      3854.31816658
  Solvation  Ediel_sol  =         0.00000000
  ---------------------------------------------------
  free energy    TOTEN  =       -14.44409700 eV

  energy without entropy =      -14.42629940  energy(sigma->0) =      -14.43519820


--------------------------------------------------------------------------------------------------------




----------------------------------------- Iteration    1(  11)  ---------------------------------------


    POTLOK:  cpu time    4.4743: real time    4.4742
    SETDIJ:  cpu time    0.0194: real time    0.0194
     EDDAV:  cpu time   38.5758: real time   38.5806
       DOS:  cpu time    0.0139: real time    0.0139
    CHARGE:  cpu time    1.4855: real time    1.4854
    MIXING:  cpu time    0.0077: real time    0.0077
    --------------------------------------------
      LOOP:  cpu time   44.5789: real time   44.5999

 eigenvalue-minimisations  :  9456
 total energy-change (2. order) :-0.2143256E+00  (-0.4021434E-02)
 number of electron      52.0000000 magnetization       0.7978613
 augmentation part       -5.5176092 magnetization       0.7885379

 Broyden mixing:
  rms(total) = 0.12858E+00    rms(broyden)= 0.12858E+00
  rms(prec ) = 0.12872E+00
  weight for this iteration     100.00

 eigenvalues of (default mixing * dielectric matrix)
  average eigenvalue GAMMA=   1.6778
  4.4900  2.2179  1.2489  0.8479  0.6312  0.6312

 Free energy of the ion-electron system (eV)
  ---------------------------------------------------
  alpha Z        PSCENC =        24.23203486
  Ewald energy   TEWEN  =      8851.87609819
  -Hartree energ DENC   =    -12140.62175825
  -exchange      EXHF   =         0.00000000
  -V(xc)+E(xc)   XCENC  =        44.41393274
  PAW double counting   =      4608.67665741    -4470.11239014
  entropy T*S    EENTRO =        -0.01163065
  eigenvalues    EBANDS =      -787.42953339
  atomic energy  EATOM  =      3854.31816658
  Solvation  Ediel_sol  =         0.00000000
  ---------------------------------------------------
  free energy    TOTEN  =       -14.65842264 eV

  energy without entropy =      -14.64679199  energy(sigma->0) =      -14.65260731


--------------------------------------------------------------------------------------------------------




----------------------------------------- Iteration    1(  12)  ---------------------------------------


    POTLOK:  cpu time    4.4688: real time    4.4688
    SETDIJ:  cpu time    0.0189: real time    0.0189
     EDDAV:  cpu time   34.8910: real time   34.8936
       DOS:  cpu time    0.0139: real time    0.0139
    CHARGE:  cpu time    1.4775: real time    1.4776
    MIXING:  cpu time    0.0080: real time    0.0081
    --------------------------------------------
      LOOP:  cpu time   40.8811: real time   40.8933

 eigenvalue-minimisations  :  8336
 total energy-change (2. order) :-0.1555928E+00  (-0.3934552E-02)
 number of electron      52.0000000 magnetization       0.2534116
 augmentation part       -5.5165750 magnetization       0.2498116

 Broyden mixing:
  rms(total) = 0.66164E-01    rms(broyden)= 0.66164E-01
  rms(prec ) = 0.66379E-01
  weight for this iteration     100.00

 eigenvalues of (default mixing * dielectric matrix)
  average eigenvalue GAMMA=   1.9690
  6.9152  2.4431  1.4627  0.9367  0.8116  0.6068  0.6068

 Free energy of the ion-electron system (eV)
  ---------------------------------------------------
  alpha Z        PSCENC =        24.23203486
  Ewald energy   TEWEN  =      8851.87609819
  -Hartree energ DENC   =    -12142.70838960
  -exchange      EXHF   =         0.00000000
  -V(xc)+E(xc)   XCENC  =        44.30878201
  PAW double counting   =      4563.03714267    -4424.40326598
  entropy T*S    EENTRO =        -0.00944930
  eigenvalues    EBANDS =      -785.46513486
  atomic energy  EATOM  =      3854.31816658
  Solvation  Ediel_sol  =         0.00000000
  ---------------------------------------------------
  free energy    TOTEN  =       -14.81401543 eV

  energy without entropy =      -14.80456612  energy(sigma->0) =      -14.80929078


--------------------------------------------------------------------------------------------------------




----------------------------------------- Iteration    1(  13)  ---------------------------------------


    POTLOK:  cpu time    4.4573: real time    4.4576
    SETDIJ:  cpu time    0.0184: real time    0.0184
     EDDAV:  cpu time   33.6926: real time   33.7025
       DOS:  cpu time    0.0139: real time    0.0139
    CHARGE:  cpu time    1.4198: real time    1.4198
    MIXING:  cpu time    0.0080: real time    0.0080
    --------------------------------------------
      LOOP:  cpu time   39.6128: real time   39.6322

 eigenvalue-minimisations  :  8056
 total energy-change (2. order) :-0.4860448E-01  (-0.1345802E-02)
 number of electron      52.0000000 magnetization       0.0448577
 augmentation part       -5.5164561 magnetization       0.0467668

 Broyden mixing:
  rms(total) = 0.27884E-01    rms(broyden)= 0.27884E-01
  rms(prec ) = 0.28139E-01
  weight for this iteration     100.00

 eigenvalues of (default mixing * dielectric matrix)
  average eigenvalue GAMMA=   2.2248
  9.4118  2.5607  1.8105  1.1315  0.9126  0.7368  0.6172  0.6172

 Free energy of the ion-electron system (eV)
  ---------------------------------------------------
  alpha Z        PSCENC =        24.23203486
  Ewald energy   TEWEN  =      8851.87609819
  -Hartree energ DENC   =    -12143.11110995
  -exchange      EXHF   =         0.00000000
  -V(xc)+E(xc)   XCENC  =        44.23916711
  PAW double counting   =      4548.92711655    -4410.34310342
  entropy T*S    EENTRO =        -0.00897398
  eigenvalues    EBANDS =      -784.99201585
  atomic energy  EATOM  =      3854.31816658
  Solvation  Ediel_sol  =         0.00000000
  ---------------------------------------------------
  free energy    TOTEN  =       -14.86261990 eV

  energy without entropy =      -14.85364592  energy(sigma->0) =      -14.85813291


--------------------------------------------------------------------------------------------------------




----------------------------------------- Iteration    1(  14)  ---------------------------------------


    POTLOK:  cpu time    4.4557: real time    4.4559
    SETDIJ:  cpu time    0.0186: real time    0.0186
     EDDAV:  cpu time   37.8160: real time   37.8319
       DOS:  cpu time    0.0141: real time    0.0141
    CHARGE:  cpu time    1.5112: real time    1.5112
    MIXING:  cpu time    0.0081: real time    0.0081
    --------------------------------------------
      LOOP:  cpu time   43.8266: real time   43.8692

 eigenvalue-minimisations  :  9192
 total energy-change (2. order) :-0.4687197E-02  (-0.3442882E-03)
 number of electron      52.0000000 magnetization       0.0165574
 augmentation part       -5.5166216 magnetization       0.0164096

 Broyden mixing:
  rms(total) = 0.10955E-01    rms(broyden)= 0.10955E-01
  rms(prec ) = 0.11311E-01
  weight for this iteration     100.00

 eigenvalues of (default mixing * dielectric matrix)
  average eigenvalue GAMMA=   2.2080
 10.0971  2.3398  2.3398  1.2814  0.9234  0.9234  0.7204  0.6178  0.6291

 Free energy of the ion-electron system (eV)
  ---------------------------------------------------
  alpha Z        PSCENC =        24.23203486
  Ewald energy   TEWEN  =      8851.87609819
  -Hartree energ DENC   =    -12142.82434909
  -exchange      EXHF   =         0.00000000
  -V(xc)+E(xc)   XCENC  =        44.22235391
  PAW double counting   =      4554.25497093    -4415.72864724
  entropy T*S    EENTRO =        -0.00895255
  eigenvalues    EBANDS =      -785.20898269
  atomic energy  EATOM  =      3854.31816658
  Solvation  Ediel_sol  =         0.00000000
  ---------------------------------------------------
  free energy    TOTEN  =       -14.86730710 eV

  energy without entropy =      -14.85835455  energy(sigma->0) =      -14.86283082


--------------------------------------------------------------------------------------------------------




----------------------------------------- Iteration    1(  15)  ---------------------------------------


    POTLOK:  cpu time    4.4585: real time    4.4589
    SETDIJ:  cpu time    0.0186: real time    0.0186
     EDDAV:  cpu time   34.2606: real time   34.2619
       DOS:  cpu time    0.0139: real time    0.0139
    CHARGE:  cpu time    1.4696: real time    1.4695
    MIXING:  cpu time    0.0088: real time    0.0088
    --------------------------------------------
      LOOP:  cpu time   40.2329: real time   40.2596

 eigenvalue-minimisations  :  8320
 total energy-change (2. order) : 0.7091223E-03  (-0.7934032E-04)
 number of electron      52.0000000 magnetization       0.0144230
 augmentation part       -5.5168717 magnetization       0.0149296

 Broyden mixing:
  rms(total) = 0.62412E-02    rms(broyden)= 0.62412E-02
  rms(prec ) = 0.65916E-02
  weight for this iteration     100.00

 eigenvalues of (default mixing * dielectric matrix)
  average eigenvalue GAMMA=   2.1096
 10.1847  2.4256  2.4256  1.3040  1.0141  1.0141  0.7956  0.6192  0.6307  0.6829

 Free energy of the ion-electron system (eV)
  ---------------------------------------------------
  alpha Z        PSCENC =        24.23203486
  Ewald energy   TEWEN  =      8851.87609819
  -Hartree energ DENC   =    -12142.50818018
  -exchange      EXHF   =         0.00000000
  -V(xc)+E(xc)   XCENC  =        44.22366515
  PAW double counting   =      4561.88509782    -4423.37296741
  entropy T*S    EENTRO =        -0.00897539
  eigenvalues    EBANDS =      -785.51153759
  atomic energy  EATOM  =      3854.31816658
  Solvation  Ediel_sol  =         0.00000000
  ---------------------------------------------------
  free energy    TOTEN  =       -14.86659798 eV

  energy without entropy =      -14.85762258  energy(sigma->0) =      -14.86211028


--------------------------------------------------------------------------------------------------------




----------------------------------------- Iteration    1(  16)  ---------------------------------------


    POTLOK:  cpu time    4.4515: real time    4.4513
    SETDIJ:  cpu time    0.0190: real time    0.0190
     EDDAV:  cpu time   31.9729: real time   31.9787
       DOS:  cpu time    0.0140: real time    0.0140
    CHARGE:  cpu time    1.4561: real time    1.4561
    MIXING:  cpu time    0.0089: real time    0.0089
    --------------------------------------------
      LOOP:  cpu time   37.9254: real time   37.9447

 eigenvalue-minimisations  :  7552
 total energy-change (2. order) : 0.2715263E-03  (-0.6099124E-04)
 number of electron      52.0000000 magnetization       0.0095328
 augmentation part       -5.5171845 magnetization       0.0096487

 Broyden mixing:
  rms(total) = 0.33292E-02    rms(broyden)= 0.33292E-02
  rms(prec ) = 0.36387E-02
  weight for this iteration     100.00

 eigenvalues of (default mixing * dielectric matrix)
  average eigenvalue GAMMA=   2.1195
 10.2838  2.6780  2.6780  1.7842  1.3767  0.9550  0.9550  0.7400  0.6266  0.6266
  0.6105

 Free energy of the ion-electron system (eV)
  ---------------------------------------------------
  alpha Z        PSCENC =        24.23203486
  Ewald energy   TEWEN  =      8851.87609819
  -Hartree energ DENC   =    -12142.12168132
  -exchange      EXHF   =         0.00000000
  -V(xc)+E(xc)   XCENC  =        44.22087785
  PAW double counting   =      4564.28639217    -4425.77541998
  entropy T*S    EENTRO =        -0.00899177
  eigenvalues    EBANDS =      -785.89380301
  atomic energy  EATOM  =      3854.31816658
  Solvation  Ediel_sol  =         0.00000000
  ---------------------------------------------------
  free energy    TOTEN  =       -14.86632645 eV

  energy without entropy =      -14.85733468  energy(sigma->0) =      -14.86183056


--------------------------------------------------------------------------------------------------------




----------------------------------------- Iteration    1(  17)  ---------------------------------------


    POTLOK:  cpu time    4.4700: real time    4.4698
    SETDIJ:  cpu time    0.0186: real time    0.0186
     EDDAV:  cpu time   32.4151: real time   32.4181
       DOS:  cpu time    0.0137: real time    0.0137
    CHARGE:  cpu time    1.4505: real time    1.4504
    MIXING:  cpu time    0.0098: real time    0.0098
    --------------------------------------------
      LOOP:  cpu time   38.3802: real time   38.4105

 eigenvalue-minimisations  :  7736
 total energy-change (2. order) :-0.5287344E-04  (-0.4167131E-04)
 number of electron      52.0000000 magnetization       0.0064191
 augmentation part       -5.5174619 magnetization       0.0062470

 Broyden mixing:
  rms(total) = 0.12379E-02    rms(broyden)= 0.12379E-02
  rms(prec ) = 0.15671E-02
  weight for this iteration     100.00

 eigenvalues of (default mixing * dielectric matrix)
  average eigenvalue GAMMA=   2.0461
 10.3145  2.8060  2.6139  1.9066  1.4358  1.0238  1.0238  0.7905  0.7461  0.6178
  0.6204  0.6539

 Free energy of the ion-electron system (eV)
  ---------------------------------------------------
  alpha Z        PSCENC =        24.23203486
  Ewald energy   TEWEN  =      8851.87609819
  -Hartree energ DENC   =    -12141.75105931
  -exchange      EXHF   =         0.00000000
  -V(xc)+E(xc)   XCENC  =        44.21674888
  PAW double counting   =      4565.08118793    -4426.56947249
  entropy T*S    EENTRO =        -0.00900159
  eigenvalues    EBANDS =      -786.26108236
  atomic energy  EATOM  =      3854.31816658
  Solvation  Ediel_sol  =         0.00000000
  ---------------------------------------------------
  free energy    TOTEN  =       -14.86637932 eV

  energy without entropy =      -14.85737773  energy(sigma->0) =      -14.86187853


--------------------------------------------------------------------------------------------------------




----------------------------------------- Iteration    1(  18)  ---------------------------------------


    POTLOK:  cpu time    4.4620: real time    4.4618
    SETDIJ:  cpu time    0.0186: real time    0.0186
     EDDAV:  cpu time   35.8972: real time   35.8987
       DOS:  cpu time    0.0140: real time    0.0140
    CHARGE:  cpu time    1.4383: real time    1.4382
    MIXING:  cpu time    0.0100: real time    0.0100
    --------------------------------------------
      LOOP:  cpu time   41.8423: real time   41.8654

 eigenvalue-minimisations  :  8776
 total energy-change (2. order) :-0.4485426E-03  (-0.9637134E-05)
 number of electron      52.0000000 magnetization       0.0049377
 augmentation part       -5.5175062 magnetization       0.0049010

 Broyden mixing:
  rms(total) = 0.86216E-03    rms(broyden)= 0.86215E-03
  rms(prec ) = 0.11980E-02
  weight for this iteration     100.00

 eigenvalues of (default mixing * dielectric matrix)
  average eigenvalue GAMMA=   1.9683
 10.3207  2.9457  2.3526  1.9343  1.5810  1.1107  1.1107  0.9082  0.7552  0.6707
  0.6707  0.6137  0.6137

 Free energy of the ion-electron system (eV)
  ---------------------------------------------------
  alpha Z        PSCENC =        24.23203486
  Ewald energy   TEWEN  =      8851.87609819
  -Hartree energ DENC   =    -12141.60857072
  -exchange      EXHF   =         0.00000000
  -V(xc)+E(xc)   XCENC  =        44.21474204
  PAW double counting   =      4564.94151916    -4426.42868949
  entropy T*S    EENTRO =        -0.00900019
  eigenvalues    EBANDS =      -786.40312829
  atomic energy  EATOM  =      3854.31816658
  Solvation  Ediel_sol  =         0.00000000
  ---------------------------------------------------
  free energy    TOTEN  =       -14.86682787 eV

  energy without entropy =      -14.85782767  energy(sigma->0) =      -14.86232777


--------------------------------------------------------------------------------------------------------




----------------------------------------- Iteration    1(  19)  ---------------------------------------


    POTLOK:  cpu time    4.4812: real time    4.4810
    SETDIJ:  cpu time    0.0184: real time    0.0184
     EDDAV:  cpu time   35.2554: real time   35.2588
       DOS:  cpu time    0.0140: real time    0.0140
    CHARGE:  cpu time    1.4871: real time    1.4872
    MIXING:  cpu time    0.0099: real time    0.0099
    --------------------------------------------
      LOOP:  cpu time   41.2686: real time   41.3265

 eigenvalue-minimisations  :  8392
 total energy-change (2. order) :-0.3792106E-03  (-0.6142032E-05)
 number of electron      52.0000000 magnetization       0.0035403
 augmentation part       -5.5175934 magnetization       0.0035355

 Broyden mixing:
  rms(total) = 0.56320E-03    rms(broyden)= 0.56320E-03
  rms(prec ) = 0.89502E-03
  weight for this iteration     100.00

 eigenvalues of (default mixing * dielectric matrix)
  average eigenvalue GAMMA=   1.9619
 10.3197  3.0866  2.3247  2.3247  1.8003  1.3847  1.0596  1.0596  0.8626  0.7483
  0.6449  0.6449  0.6034  0.6034

 Free energy of the ion-electron system (eV)
  ---------------------------------------------------
  alpha Z        PSCENC =        24.23203486
  Ewald energy   TEWEN  =      8851.87609819
  -Hartree energ DENC   =    -12141.46971358
  -exchange      EXHF   =         0.00000000
  -V(xc)+E(xc)   XCENC  =        44.21324264
  PAW double counting   =      4564.81427317    -4426.29982077
  entropy T*S    EENTRO =        -0.00899823
  eigenvalues    EBANDS =      -786.54248992
  atomic energy  EATOM  =      3854.31816658
  Solvation  Ediel_sol  =         0.00000000
  ---------------------------------------------------
  free energy    TOTEN  =       -14.86720708 eV

  energy without entropy =      -14.85820885  energy(sigma->0) =      -14.86270796


--------------------------------------------------------------------------------------------------------




----------------------------------------- Iteration    1(  20)  ---------------------------------------


    POTLOK:  cpu time    4.4492: real time    4.4493
    SETDIJ:  cpu time    0.0194: real time    0.0194
     EDDAV:  cpu time   32.4925: real time   32.4948
       DOS:  cpu time    0.0140: real time    0.0140
    CHARGE:  cpu time    1.4599: real time    1.4601
    MIXING:  cpu time    0.0109: real time    0.0109
    --------------------------------------------
      LOOP:  cpu time   38.4490: real time   38.4799

 eigenvalue-minimisations  :  7672
 total energy-change (2. order) :-0.4849223E-03  (-0.1217543E-04)
 number of electron      52.0000000 magnetization       0.0027697
 augmentation part       -5.5177183 magnetization       0.0027725

 Broyden mixing:
  rms(total) = 0.43886E-03    rms(broyden)= 0.43886E-03
  rms(prec ) = 0.61502E-03
  weight for this iteration     100.00

 eigenvalues of (default mixing * dielectric matrix)
  average eigenvalue GAMMA=   1.9343
 10.3220  3.3635  2.5631  2.5631  1.7306  1.3700  1.1120  1.1120  0.9164  0.7493
  0.7493  0.6574  0.6166  0.6166  0.5732

 Free energy of the ion-electron system (eV)
  ---------------------------------------------------
  alpha Z        PSCENC =        24.23203486
  Ewald energy   TEWEN  =      8851.87609819
  -Hartree energ DENC   =    -12141.19850626
  -exchange      EXHF   =         0.00000000
  -V(xc)+E(xc)   XCENC  =        44.21086188
  PAW double counting   =      4564.78633183    -4426.26895664
  entropy T*S    EENTRO =        -0.00899837
  eigenvalues    EBANDS =      -786.81472407
  atomic energy  EATOM  =      3854.31816658
  Solvation  Ediel_sol  =         0.00000000
  ---------------------------------------------------
  free energy    TOTEN  =       -14.86769200 eV

  energy without entropy =      -14.85869363  energy(sigma->0) =      -14.86319282


--------------------------------------------------------------------------------------------------------




----------------------------------------- Iteration    1(  21)  ---------------------------------------


    POTLOK:  cpu time    4.4575: real time    4.4575
    SETDIJ:  cpu time    0.0186: real time    0.0186
     EDDAV:  cpu time   34.1092: real time   34.1109
       DOS:  cpu time    0.0137: real time    0.0137
    CHARGE:  cpu time    1.4412: real time    1.4411
    MIXING:  cpu time    0.0101: real time    0.0101
    --------------------------------------------
      LOOP:  cpu time   40.0530: real time   40.0724

 eigenvalue-minimisations  :  8208
 total energy-change (2. order) :-0.1209654E-03  (-0.2694763E-05)
 number of electron      52.0000000 magnetization       0.0019213
 augmentation part       -5.5177732 magnetization       0.0019236

 Broyden mixing:
  rms(total) = 0.32935E-03    rms(broyden)= 0.32935E-03
  rms(prec ) = 0.45459E-03
  weight for this iteration     100.00

 eigenvalues of (default mixing * dielectric matrix)
  average eigenvalue GAMMA=   1.8836
 10.3226  3.5242  2.6024  2.6024  1.6598  1.2530  1.2530  1.1230  0.9405  0.9405
  0.7598  0.7003  0.6655  0.6186  0.6186  0.5538

 Free energy of the ion-electron system (eV)
  ---------------------------------------------------
  alpha Z        PSCENC =        24.23203486
  Ewald energy   TEWEN  =      8851.87609819
  -Hartree energ DENC   =    -12141.07436480
  -exchange      EXHF   =         0.00000000
  -V(xc)+E(xc)   XCENC  =        44.20993687
  PAW double counting   =      4564.89618499    -4426.37824746
  entropy T*S    EENTRO =        -0.00899939
  eigenvalues    EBANDS =      -786.93862280
  atomic energy  EATOM  =      3854.31816658
  Solvation  Ediel_sol  =         0.00000000
  ---------------------------------------------------
  free energy    TOTEN  =       -14.86781296 eV

  energy without entropy =      -14.85881357  energy(sigma->0) =      -14.86331327


--------------------------------------------------------------------------------------------------------




----------------------------------------- Iteration    1(  22)  ---------------------------------------


    POTLOK:  cpu time    4.4751: real time    4.4749
    SETDIJ:  cpu time    0.0200: real time    0.0200
     EDDAV:  cpu time   33.4204: real time   33.4208
       DOS:  cpu time    0.0138: real time    0.0138
    CHARGE:  cpu time    1.4561: real time    1.4565
    MIXING:  cpu time    0.0107: real time    0.0107
    --------------------------------------------
      LOOP:  cpu time   39.3989: real time   39.4221

 eigenvalue-minimisations  :  7904
 total energy-change (2. order) :-0.9691412E-04  (-0.3416429E-05)
 number of electron      52.0000000 magnetization       0.0010375
 augmentation part       -5.5178251 magnetization       0.0010311

 Broyden mixing:
  rms(total) = 0.19611E-03    rms(broyden)= 0.19611E-03
  rms(prec ) = 0.28710E-03
  weight for this iteration     100.00

 eigenvalues of (default mixing * dielectric matrix)
  average eigenvalue GAMMA=   2.0270
 10.3204  5.2296  2.9562  2.2810  2.1180  2.1180  1.5847  1.1072  1.1072  0.9524
  0.8381  0.7535  0.6817  0.6155  0.6234  0.6234  0.5479

 Free energy of the ion-electron system (eV)
  ---------------------------------------------------
  alpha Z        PSCENC =        24.23203486
  Ewald energy   TEWEN  =      8851.87609819
  -Hartree energ DENC   =    -12140.94689781
  -exchange      EXHF   =         0.00000000
  -V(xc)+E(xc)   XCENC  =        44.20914523
  PAW double counting   =      4564.93541727    -4426.41741956
  entropy T*S    EENTRO =        -0.00899836
  eigenvalues    EBANDS =      -787.06545627
  atomic energy  EATOM  =      3854.31816658
  Solvation  Ediel_sol  =         0.00000000
  ---------------------------------------------------
  free energy    TOTEN  =       -14.86790988 eV

  energy without entropy =      -14.85891152  energy(sigma->0) =      -14.86341070


--------------------------------------------------------------------------------------------------------




----------------------------------------- Iteration    1(  23)  ---------------------------------------


    POTLOK:  cpu time    4.4687: real time    4.4686
    SETDIJ:  cpu time    0.0184: real time    0.0184
     EDDAV:  cpu time   33.9012: real time   33.9037
       DOS:  cpu time    0.0139: real time    0.0139
    CHARGE:  cpu time    1.5025: real time    1.5027
    MIXING:  cpu time    0.0107: real time    0.0107
    --------------------------------------------
      LOOP:  cpu time   39.9184: real time   39.9527

 eigenvalue-minimisations  :  7976
 total energy-change (2. order) :-0.7132575E-04  (-0.4661322E-05)
 number of electron      52.0000000 magnetization       0.0008117
 augmentation part       -5.5178685 magnetization       0.0008003

 Broyden mixing:
  rms(total) = 0.17108E-03    rms(broyden)= 0.17108E-03
  rms(prec ) = 0.20124E-03
  weight for this iteration     100.00

 eigenvalues of (default mixing * dielectric matrix)
  average eigenvalue GAMMA=   2.0149
 10.3217  6.2691  3.0985  2.3047  2.3047  1.5755  1.5755  1.2353  1.0303  1.0303
  0.9335  0.7582  0.7582  0.6748  0.6278  0.6128  0.6128  0.5446

 Free energy of the ion-electron system (eV)
  ---------------------------------------------------
  alpha Z        PSCENC =        24.23203486
  Ewald energy   TEWEN  =      8851.87609819
  -Hartree energ DENC   =    -12140.79131111
  -exchange      EXHF   =         0.00000000
  -V(xc)+E(xc)   XCENC  =        44.20821738
  PAW double counting   =      4564.94858207    -4426.43055234
  entropy T*S    EENTRO =        -0.00899699
  eigenvalues    EBANDS =      -787.22021985
  atomic energy  EATOM  =      3854.31816658
  Solvation  Ediel_sol  =         0.00000000
  ---------------------------------------------------
  free energy    TOTEN  =       -14.86798120 eV

  energy without entropy =      -14.85898422  energy(sigma->0) =      -14.86348271


[...]
     21      -4.2088      1.00000
     22      -4.1870      1.00000
     23      -3.9713      1.00000
     24      -3.8071      1.00000
     25      -1.4780      0.99977
     26      -1.3245      0.99210
     27      -0.5238      0.00058
     28       0.3170      0.00000
     29       0.9273      0.00000
     30       0.9342      0.00000
     31       1.0454      0.00000
     32       1.1351      0.00000
     33       1.1927      0.00000
     34       1.5423      0.00000
     35       1.5950      0.00000
     36       1.7167      0.00000
     37       2.1778      0.00000
     38       2.8362      0.00000
     39       3.1625      0.00000
     40       3.4482      0.00000

 k-point    42 :       0.2941    0.4444    0.0000
  band No.  band energies     occupation 
      1     -50.2471      1.00000
      2     -50.2182      1.00000
      3     -28.6565      1.00000
      4     -28.6461      1.00000
      5     -28.5906      1.00000
      6     -28.5467      1.00000
      7     -28.4295      1.00000
      8     -28.3386      1.00000
      9     -14.7299      1.00000
     10     -14.6475      1.00000
     11     -14.6055      1.00000
     12     -14.3910      1.00000
     13      -6.2088      1.00000
     14      -5.9361      1.00000
     15      -5.8717      1.00000
     16      -5.6260      1.00000
     17      -5.4492      1.00000
     18      -5.2508      1.00000
     19      -5.0732      1.00000
     20      -4.7206      1.00000
     21      -4.3102      1.00000
     22      -4.2066      1.00000
     23      -4.1029      1.00000
     24      -3.8367      1.00000
     25      -1.5372      0.99996
     26      -1.4048      0.99857
     27      -0.1829      0.00000
     28       0.4855      0.00000
     29       0.9904      0.00000
     30       1.1313      0.00000
     31       1.1750      0.00000
     32       1.2509      0.00000
     33       1.2881      0.00000
     34       1.6595      0.00000
     35       1.7332      0.00000
     36       1.8638      0.00000
     37       2.4979      0.00000
     38       3.0222      0.00000
     39       3.1478      0.00000
     40       3.4716      0.00000

 k-point    43 :       0.3529    0.4444    0.0000
  band No.  band energies     occupation 
      1     -50.2422      1.00000
      2     -50.2209      1.00000
      3     -28.6691      1.00000
      4     -28.6669      1.00000
      5     -28.5815      1.00000
      6     -28.5491      1.00000
      7     -28.4211      1.00000
      8     -28.3478      1.00000
      9     -14.6444      1.00000
     10     -14.5906      1.00000
     11     -14.5022      1.00000
     12     -14.3376      1.00000
     13      -6.4800      1.00000
     14      -6.2807      1.00000
     15      -6.0501      1.00000
     16      -5.7921      1.00000
     17      -5.3467      1.00000
     18      -5.1831      1.00000
     19      -5.0358      1.00000
     20      -4.6619      1.00000
     21      -4.3673      1.00000
     22      -4.1854      1.00000
     23      -4.1724      1.00000
     24      -3.9093      1.00000
     25      -1.6072      0.99999
     26      -1.4906      0.99983
     27       0.1917      0.00000
     28       0.6843      0.00000
     29       0.9900      0.00000
     30       1.2016      0.00000
     31       1.3114      0.00000
     32       1.3863      0.00000
     33       1.6329      0.00000
     34       1.7206      0.00000
     35       1.8035      0.00000
     36       2.2503      0.00000
     37       2.7460      0.00000
     38       2.8831      0.00000
     39       3.1738      0.00000
     40       3.5263      0.00000

 k-point    44 :       0.4118    0.4444    0.0000
  band No.  band energies     occupation 
      1     -50.2373      1.00000
      2     -50.2242      1.00000
      3     -28.6819      1.00000
      4     -28.6803      1.00000
      5     -28.5727      1.00000
      6     -28.5529      1.00000
      7     -28.4080      1.00000
      8     -28.3605      1.00000
      9     -14.5800      1.00000
     10     -14.5508      1.00000
     11     -14.4066      1.00000
     12     -14.3038      1.00000
     13      -6.6933      1.00000
     14      -6.5706      1.00000
     15      -6.1620      1.00000
     16      -5.9840      1.00000
     17      -5.2535      1.00000
     18      -5.2055      1.00000
     19      -4.8382      1.00000
     20      -4.5566      1.00000
     21      -4.4400      1.00000
     22      -4.1677      1.00000
     23      -4.1523      1.00000
     24      -4.0378      1.00000
     25      -1.6496      1.00000
     26      -1.5643      0.99998
     27       0.5309      0.00000
     28       0.8215      0.00000
     29       0.9945      0.00000
     30       1.2043      0.00000
     31       1.4076      0.00000
     32       1.4951      0.00000
     33       1.8488      0.00000
     34       1.9526      0.00000
     35       2.0651      0.00000
     36       2.5668      0.00000
     37       2.6879      0.00000
     38       2.9599      0.00000
     39       3.2841      0.00000
     40       3.3389      0.00000

 k-point    45 :       0.4706    0.4444    0.0000
  band No.  band energies     occupation 
      1     -50.2325      1.00000
      2     -50.2281      1.00000
      3     -28.6888      1.00000
      4     -28.6879      1.00000
      5     -28.5648      1.00000
      6     -28.5581      1.00000
      7     -28.3922      1.00000
      8     -28.3758      1.00000
      9     -14.5422      1.00000
     10     -14.5331      1.00000
     11     -14.3361      1.00000
     12     -14.3012      1.00000
     13      -6.7893      1.00000
     14      -6.7478      1.00000
     15      -6.1896      1.00000
     16      -6.1273      1.00000
     17      -5.2146      1.00000
     18      -5.2086      1.00000
     19      -4.6616      1.00000
     20      -4.5442      1.00000
     21      -4.3898      1.00000
     22      -4.2148      1.00000
     23      -4.1427      1.00000
     24      -4.1334      1.00000
     25      -1.6517      1.00000
     26      -1.6200      1.00000
     27       0.7503      0.00000
     28       0.8306      0.00000
     29       1.0666      0.00000
     30       1.1397      0.00000
     31       1.4806      0.00000
     32       1.5474      0.00000
     33       2.0017      0.00000
     34       2.0514      0.00000
     35       2.4771      0.00000
     36       2.6228      0.00000
     37       2.8274      0.00000
     38       3.0730      0.00000
     39       3.0994      0.00000
     40       3.1087      0.00000


--------------------------------------------------------------------------------------------------------


 soft charge-density along one line, spin component           1
         0         1         2         3         4         5         6         7         8         9
 total charge-density along one line
 
 soft charge-density along one line, spin component           2
         0         1         2         3         4         5         6         7         8         9
 total charge-density along one line
 
 pseudopotential strength for first ion, spin component:           1
 67.210  70.899   0.008  -0.056   0.000   0.010  -0.075  -0.000
 70.899  74.795   0.008  -0.059   0.000   0.011  -0.079   0.000
  0.008   0.008  17.187  -0.003   0.000  22.914  -0.003   0.000
 -0.056  -0.059  -0.003  17.182   0.000  -0.003  22.908   0.000
  0.000   0.000   0.000   0.000  17.184   0.000   0.000  22.910
  0.010   0.011  22.914  -0.003   0.000  30.560  -0.005   0.000
 -0.075  -0.079  -0.003  22.908   0.000  -0.005  30.551   0.000
 -0.000   0.000   0.000   0.000  22.910   0.000   0.000  30.554
  0.000   0.000  -0.000  -0.000   0.002   0.000  -0.000   0.003
 -0.004  -0.004  -0.014   0.002  -0.000  -0.018   0.003  -0.000
 -0.003  -0.003  -0.001  -0.016  -0.000  -0.002  -0.022  -0.000
  0.000   0.000  -0.000   0.000  -0.014  -0.000   0.000  -0.019
 -0.002  -0.002  -0.002  -0.000  -0.000  -0.003  -0.000   0.000
 pseudopotential strength for first ion, spin component:           2
 67.210  70.899   0.008  -0.056   0.000   0.010  -0.075  -0.000
 70.899  74.795   0.008  -0.059   0.000   0.011  -0.079   0.000
  0.008   0.008  17.187  -0.003   0.000  22.914  -0.003   0.000
 -0.056  -0.059  -0.003  17.182   0.000  -0.003  22.908   0.000
  0.000   0.000   0.000   0.000  17.184   0.000   0.000  22.910
  0.010   0.011  22.914  -0.003   0.000  30.560  -0.005   0.000
 -0.075  -0.079  -0.003  22.908   0.000  -0.005  30.551   0.000
 -0.000   0.000   0.000   0.000  22.910   0.000   0.000  30.554
  0.000   0.000  -0.000  -0.000   0.002   0.000  -0.000   0.003
 -0.004  -0.004  -0.014   0.002  -0.000  -0.018   0.003  -0.000
 -0.003  -0.003  -0.001  -0.016  -0.000  -0.002  -0.022  -0.000
  0.000   0.000  -0.000   0.000  -0.014  -0.000   0.000  -0.019
 -0.002  -0.002  -0.002  -0.000  -0.000  -0.003  -0.000   0.000
 total augmentation occupancy for first ion, spin component:           1
  3.195  -3.661  -0.331   1.904   0.000   0.106  -0.511   0.000   0.000   0.024   0.013   0.000  -0.003
 -3.661   5.784   0.321  -1.803   0.000  -0.117   0.557   0.000   0.000  -0.028  -0.015   0.000  -0.002
 -0.331   0.321   3.595  -0.169   0.000  -0.898   0.093   0.000   0.000  -0.122   0.001   0.000   0.025
  1.904  -1.803  -0.169   3.343   0.000   0.093  -0.747   0.000   0.000   0.027  -0.061   0.000   0.011
  0.000   0.000   0.000   0.000   3.353   0.000   0.000  -0.772   0.055   0.000   0.000  -0.103   0.000
  0.106  -0.117  -0.898   0.093   0.000   0.292  -0.028   0.000   0.000   0.029   0.002   0.000   0.003
 -0.511   0.557   0.093  -0.747   0.000  -0.028   0.236   0.000   0.000  -0.008   0.028   0.000  -0.002
  0.000   0.000   0.000   0.000  -0.772   0.000   0.000   0.270  -0.006   0.000   0.000   0.022   0.000
  0.000   0.000   0.000   0.000   0.055   0.000   0.000  -0.006   0.007   0.000   0.000  -0.000   0.000
  0.024  -0.028  -0.122   0.027   0.000   0.029  -0.008   0.000   0.000   0.010  -0.001   0.000   0.002
  0.013  -0.015   0.001  -0.061   0.000   0.002   0.028   0.000   0.000  -0.001   0.008   0.000  -0.000
  0.000   0.000   0.000   0.000  -0.103   0.000   0.000   0.022  -0.000   0.000   0.000   0.007   0.000
 -0.003  -0.002   0.025   0.011   0.000   0.003  -0.002   0.000   0.000   0.002  -0.000   0.000   0.011
 total augmentation occupancy for first ion, spin component:           2
 -0.000   0.000   0.000  -0.000   0.000  -0.000   0.000   0.000   0.000   0.000  -0.000   0.000  -0.000
  0.000  -0.000  -0.000   0.000   0.000   0.000  -0.000   0.000   0.000  -0.000   0.000   0.000   0.000
  0.000  -0.000  -0.000   0.000   0.000   0.000  -0.000   0.000   0.000   0.000   0.000   0.000   0.000
 -0.000   0.000   0.000  -0.000   0.000  -0.000   0.000   0.000   0.000  -0.000   0.000   0.000  -0.000
  0.000   0.000   0.000   0.000  -0.000   0.000   0.000   0.000   0.000   0.000   0.000   0.000   0.000
 -0.000   0.000   0.000  -0.000   0.000  -0.000   0.000   0.000   0.000  -0.000   0.000   0.000  -0.000
  0.000  -0.000  -0.000   0.000   0.000   0.000  -0.000   0.000   0.000   0.000  -0.000   0.000   0.000
  0.000   0.000   0.000   0.000   0.000   0.000   0.000  -0.000  -0.000   0.000   0.000  -0.000   0.000
  0.000   0.000   0.000   0.000   0.000   0.000   0.000  -0.000   0.000   0.000   0.000  -0.000   0.000
  0.000  -0.000   0.000  -0.000   0.000  -0.000   0.000   0.000   0.000  -0.000  -0.000   0.000  -0.000
 -0.000   0.000   0.000   0.000   0.000   0.000  -0.000   0.000   0.000  -0.000   0.000   0.000  -0.000
  0.000   0.000   0.000   0.000   0.000   0.000   0.000  -0.000  -0.000   0.000   0.000  -0.000   0.000
 -0.000   0.000   0.000  -0.000   0.000  -0.000   0.000   0.000   0.000  -0.000  -0.000   0.000   0.000


------------------------ aborting loop because EDIFF is reached ----------------------------------------


 


 total charge     
 
# of ion     s       p       d       tot
----------------------------------------
  1        1.550   2.854   0.027   4.430
  2        1.552   2.840   0.035   4.428
  3        1.550   2.854   0.027   4.430
  4        1.552   2.840   0.035   4.427
  5        2.117   5.952   1.690   9.760
  6        2.117   5.952   1.690   9.760
------------------------------------------------
tot       10.438  23.293   3.505  37.235
 


 magnetization (x)
 
# of ion     s       p       d       tot
----------------------------------------
  1       -0.000   0.000   0.000   0.000
  2       -0.000   0.000  -0.000   0.000
  3       -0.000   0.000  -0.000   0.000
  4       -0.000   0.000   0.000   0.000
  5       -0.000  -0.000   0.000   0.000
  6       -0.000   0.000   0.000   0.000
------------------------------------------------
tot       -0.000   0.000   0.000   0.000
 
    CHARGE:  cpu time    1.4514: real time    1.4513
    FORLOC:  cpu time    0.0088: real time    0.0088
    FORNL :  cpu time    3.6661: real time    3.6661
    STRESS:  cpu time    6.4749: real time    6.4751
    FORCOR:  cpu time    4.4762: real time    4.4759
    FORHAR:  cpu time    0.0361: real time    0.0361
    MIXING:  cpu time    0.0079: real time    0.0079
    OFIELD:  cpu time    0.0001: real time    0.0001

  FORCE on cell =-STRESS in cart. coord.  units (eV):
  Direction    XX          YY          ZZ          XY          YZ          ZX
  --------------------------------------------------------------------------------------
  Alpha Z    24.49096    24.49096    24.49096
  Ewald   11101.11895 10968.81200-13119.96304    -0.00000     0.85851    -0.00000
  Hartree 11847.14891 11740.93450-11346.91537    -0.00000     5.72468    -0.00000
  E(xc)    -215.39946  -215.29379  -214.42255    -0.00000    -0.03097     0.00000
  Local  -23926.66841-23692.32730 23493.24335     0.00000    -8.31694     0.00000
  n-local   559.18784   554.89158   571.19843    -2.16641     0.71104    -0.22286
  augment  -130.34045  -128.74761  -131.47780     0.00000    -0.25568     0.00000
  Kinetic   740.46298   747.24064   723.83284     1.13393     1.30555     0.41629
  Fock        0.00000     0.00000     0.00000     0.00000     0.00000     0.00000
  -------------------------------------------------------------------------------------
  Total       0.00132     0.00097    -0.01318     0.00000    -0.00382     0.00000
  in kB       0.00334     0.00246    -0.03344     0.00000    -0.00968     0.00000
  external pressure =       -0.01 kB  Pullay stress =        0.00 kB


 VOLUME and BASIS-vectors are now :
 -----------------------------------------------------------------------------
  energy-cutoff  :      600.00
  volume of cell :      631.66
      direct lattice vectors                 reciprocal lattice vectors
     3.762958023  0.000000000  0.000000000     0.265748380  0.000000000  0.000000000
     0.000000000  6.876022127  0.000000000     0.000000000  0.145432924  0.000000000
     0.000000000  0.000000000 24.412573000     0.000000000  0.000000000  0.040962499

  length of vectors
     3.762958023  6.876022127 24.412573000     0.265748380  0.145432924  0.040962499


 FORCES acting on ions
    electron-ion (+dipol)            ewald-force                    non-local-force                 convergence-correction
 -----------------------------------------------------------------------------------------------
   0.810E-12 0.299E+02 -.587E+03   0.153E-13 -.301E+02 0.590E+03   0.000E+00 0.200E+00 -.282E+01   0.548E-14 -.131E-05 0.525E-05
   0.113E-11 0.195E+02 0.762E+03   0.197E-13 -.196E+02 -.765E+03   0.000E+00 0.494E-01 0.262E+01   -.130E-14 -.693E-06 -.129E-04
   -.633E-12 -.299E+02 0.587E+03   0.113E-13 0.301E+02 -.590E+03   0.000E+00 -.200E+00 0.282E+01   -.455E-14 0.695E-06 -.873E-05
   0.463E-12 -.195E+02 -.762E+03   -.197E-13 0.196E+02 0.765E+03   0.000E+00 -.493E-01 -.262E+01   0.163E-14 0.129E-05 0.970E-05
   0.136E-12 0.138E+03 0.312E+02   -.473E-13 -.136E+03 -.309E+02   0.000E+00 -.214E+01 -.268E+00   0.100E-13 -.764E-05 -.509E-05
   -.411E-14 -.138E+03 -.312E+02   0.138E-14 0.136E+03 0.309E+02   0.000E+00 0.214E+01 0.268E+00   -.111E-14 0.682E-05 -.865E-06
 -----------------------------------------------------------------------------------------------
   0.190E-11 -.234E-05 0.206E-03   -.193E-13 0.000E+00 0.171E-12   0.000E+00 0.350E-04 0.161E-02   0.102E-13 -.830E-06 -.127E-04
 
 
 POSITION                                       TOTAL-FORCE (eV/Angst)
 -----------------------------------------------------------------------------------
      0.00000      6.06711      3.85448         0.000000     -0.000185      0.000137
      0.00000      1.52803     -0.00113         0.000000      0.000722     -0.000681
      1.88148      4.98364      0.55806         0.000000      0.000180     -0.000112
      1.88148      2.64668      4.41360         0.000000     -0.000681      0.000689
      1.88148      0.79374      2.15556         0.000000      0.000178      0.000038
      0.00000      3.38097      2.25688         0.000000     -0.000214     -0.000071
 -----------------------------------------------------------------------------------
    total drift:                                0.000000      0.000032      0.001806


--------------------------------------------------------------------------------------------------------



  FREE ENERGIE OF THE ION-ELECTRON SYSTEM (eV)
  ---------------------------------------------------
  free  energy   TOTEN  =       -14.87236567 eV

  energy  without entropy=      -14.86396302  energy(sigma->0) =      -14.86816435
 
 d Force = 0.5131541E-10[ 0.469E-10, 0.557E-10]  d Energy = 0.1161143E-04-0.116E-04
 d Force = 0.1742315E-04[ 0.174E-04, 0.174E-04]  d Ewald  =-0.1595513E-03 0.177E-03


--------------------------------------------------------------------------------------------------------


    POTLOK:  cpu time    4.5094: real time    4.5094


--------------------------------------------------------------------------------------------------------




--------------------------------------------------------------------------------------------------------


  
 reached required accuracy - stopping structural energy minimisation
     LOOP+:  cpu time  279.9452: real time  280.2004
    4ORBIT:  cpu time    0.0000: real time    0.0000
 


 total charge     
 
# of ion     s       p       d       tot
----------------------------------------
  1        1.550   2.854   0.027   4.430
  2        1.552   2.840   0.035   4.428
  3        1.550   2.854   0.027   4.430
  4        1.552   2.840   0.035   4.427
  5        2.117   5.952   1.690   9.760
  6        2.117   5.952   1.690   9.760
------------------------------------------------
tot       10.438  23.293   3.505  37.235
 


 magnetization (x)
 
# of ion     s       p       d       tot
----------------------------------------
  1       -0.000   0.000   0.000   0.000
  2       -0.000   0.000  -0.000   0.000
  3       -0.000   0.000  -0.000   0.000
  4       -0.000   0.000   0.000   0.000
  5       -0.000  -0.000   0.000   0.000
  6       -0.000   0.000   0.000   0.000
------------------------------------------------
tot       -0.000   0.000   0.000   0.000
 

 total amount of memory used by VASP on root node   158776. kBytes
========================================================================

   base      :      30000. kBytes
   nonl-proj :      70189. kBytes
   fftplans  :       5496. kBytes
   grid      :      14092. kBytes
   one-center:         62. kBytes
   wavefun   :      38937. kBytes
 
  
  
 General timing and accounting informations for this job:
 ========================================================
  
                  Total CPU time used (sec):    18472.727
                            User time (sec):    14959.281
                          System time (sec):     3513.446
                         Elapsed time (sec):    18485.463
  
                   Maximum memory used (kb):      334504.
                   Average memory used (kb):           0.
  
                          Minor page faults:     38644738
                          Major page faults:            4
                 Voluntary context switches:        14261
