       N       E                     dE             d eps       ncg     rms          rms(c)
NONE   1    -0.231936003215E+02   -0.23194E+02    0.00000E+00     0   0.000E+00
   1 F= -.23193600E+02 E0= -.23193414E+02  d E =-.372359E-03  mag=     0.0000     0.0000     4.3793
