 vasp.5.4.1 24Jun15 (build Feb  9 2019 14:26:05) complex                         
 executed on           IFC91_ompi date 2019.12.23  22:26:02
 running on   16 total cores
 distrk:  each k-point on   16 cores,    1 groups
 distr:  one band on NCORES_PER_BAND=   1 cores,   16 groups


--------------------------------------------------------------------------------------------------------


 INCAR:
 POTCAR:    PAW_PBE Fe_pv 02Aug2007               
 POTCAR:    PAW_PBE Te 08Apr2002                  

 ----------------------------------------------------------------------------- 
|                                                                             |
|           W    W    AA    RRRRR   N    N  II  N    N   GGGG   !!!           |
|           W    W   A  A   R    R  NN   N  II  NN   N  G    G  !!!           |
|           W    W  A    A  R    R  N N  N  II  N N  N  G       !!!           |
|           W WW W  AAAAAA  RRRRR   N  N N  II  N  N N  G  GGG   !            |
|           WW  WW  A    A  R   R   N   NN  II  N   NN  G    G                |
|           W    W  A    A  R    R  N    N  II  N    N   GGGG   !!!           |
|                                                                             |
|      For optimal performance we recommend to set                            |
|        NCORE= 4 - approx SQRT( number of cores)                             |
|      NCORE specifies how many cores store one orbital (NPAR=cpu/NCORE).     |
|      This setting can  greatly improve the performance of VASP for DFT.     |
|      The default, NPAR=number of cores might be grossly inefficient         |
|      on modern multi-core architectures or massively parallel machines.     |
|      Do your own testing !!!!                                               |
|      Unfortunately you need to use the default for GW and RPA calculations. |
|      (for HF NCORE is supported but not extensively tested yet)             |
|                                                                             |
 ----------------------------------------------------------------------------- 

 POTCAR:    PAW_PBE Fe_pv 02Aug2007               
   VRHFIN =Fe:  3pd7s1                                                          
   LEXCH  = PE                                                                  
   EATOM  =  2457.4239 eV,  180.6156 Ry                                         
                                                                                
   TITEL  = PAW_PBE Fe_pv 02Aug2007                                             
   LULTRA =        F    use ultrasoft PP ?                                      
   IUNSCR =        1    unscreen: 0-lin 1-nonlin 2-no                           
   RPACOR =    1.750    partial core radius                                     
   POMASS =   55.847; ZVAL   =   14.000    mass and valenz                      
   RCORE  =    2.200    outmost cutoff radius                                   
   RWIGS  =    2.200; RWIGS  =    1.164    wigner-seitz radius (au A)           
   ENMAX  =  293.238; ENMIN  =  219.928 eV                                      
   ICORE  =        3    local potential                                         
   LCOR   =        T    correct aug charges                                     
   LPAW   =        T    paw PP                                                  
   EAUG   =  578.342                                                            
   DEXC   =    0.000                                                            
   RMAX   =    2.249    core radius for proj-oper                               
   RAUG   =    1.300    factor for augmentation sphere                          
   RDEP   =    2.296    radius for radial grids                                 
   RDEPT  =    1.766    core radius for aug-charge                              
                                                                                
   Atomic configuration                                                         
    8 entries                                                                   
     n  l   j            E        occ.                                          
     1  0  0.50     -6993.8440   2.0000                                         
     2  0  0.50      -814.6047   2.0000                                         
     2  1  1.50      -693.3689   6.0000                                         
     3  0  0.50       -89.4732   2.0000                                         
     3  1  1.50       -55.6373   6.0000                                         
     3  2  2.50        -3.8151   7.0000                                         
     4  0  0.50        -4.2551   1.0000                                         
     4  3  2.50        -1.3606   0.0000                                         
   Description                                                                  
     l       E           TYP  RCUT    TYP  RCUT                                 
     1    -55.6372668     23  2.000                                             
     1     -5.4423304     23  2.000                                             
     2     -3.8151096     23  2.200                                             
     2     -5.1756922     23  2.200                                             
     0     -4.2550951     23  2.200                                             
     0     27.2116520     23  2.200                                             
     3     -1.3605826     23  2.200                                             
  local pseudopotential read in
  partial core-charges read in
  partial kinetic energy density read in
  atomic valenz-charges read in
  non local Contribution for L=           1  read in
    real space projection operators read in
  non local Contribution for L=           1  read in
    real space projection operators read in
  non local Contribution for L=           2  read in
    real space projection operators read in
  non local Contribution for L=           2  read in
    real space projection operators read in
  non local Contribution for L=           0  read in
    real space projection operators read in
  non local Contribution for L=           0  read in
    real space projection operators read in
    PAW grid and wavefunctions read in

   number of l-projection  operators is LMAX  =           6
   number of lm-projection operators is LMMAX =          18

 POTCAR:    PAW_PBE Te 08Apr2002                  
   VRHFIN =Te: s2p4                                                             
   LEXCH  = PE                                                                  
   EATOM  =   223.2721 eV,   16.4100 Ry                                         
                                                                                
   TITEL  = PAW_PBE Te 08Apr2002                                                
   LULTRA =        F    use ultrasoft PP ?                                      
   IUNSCR =        1    unscreen: 0-lin 1-nonlin 2-no                           
   RPACOR =    2.200    partial core radius                                     
   POMASS =  127.600; ZVAL   =    6.000    mass and valenz                      
   RCORE  =    2.300    outmost cutoff radius                                   
   RWIGS  =    2.900; RWIGS  =    1.535    wigner-seitz radius (au A)           
   ENMAX  =  174.982; ENMIN  =  131.236 eV                                      
   ICORE  =        3    local potential                                         
   LCOR   =        T    correct aug charges                                     
   LPAW   =        T    paw PP                                                  
   EAUG   =  368.792                                                            
   DEXC   =    0.000                                                            
   RMAX   =    2.345    core radius for proj-oper                               
   RAUG   =    1.300    factor for augmentation sphere                          
   RDEP   =    2.397    radius for radial grids                                 
   RDEPT  =    2.174    core radius for aug-charge                              
                                                                                
   Atomic configuration                                                         
   13 entries                                                                   
     n  l   j            E        occ.                                          
     1  0  0.50    -31621.2075   2.0000                                         
     2  0  0.50     -4848.7941   2.0000                                         
     2  1  1.50     -4352.1960   6.0000                                         
     3  0  0.50      -964.9612   2.0000                                         
     3  1  1.50      -803.6179   6.0000                                         
     3  2  2.50      -559.8710  10.0000                                         
     4  0  0.50      -164.3522   2.0000                                         
     4  1  1.50      -114.3756   6.0000                                         
     4  2  2.50       -41.6483  10.0000                                         
     5  0  0.50       -15.1072   2.0000                                         
     5  1  0.50        -5.9526   4.0000                                         
     5  2  1.50        -5.4423   0.0000                                         
     4  3  2.50        -5.4423   0.0000                                         
   Description                                                                  
     l       E           TYP  RCUT    TYP  RCUT                                 
     0    -15.1072389     23  2.300                                             
     0    -16.4678215     23  2.300                                             
     1     -5.9526306     23  2.300                                             
     1     -2.4873968     23  2.300                                             
     2     -5.4423304     23  2.300                                             
     3     -1.3605826     23  2.300                                             
  local pseudopotential read in
  partial core-charges read in
  partial kinetic energy density read in
  atomic valenz-charges read in
  non local Contribution for L=           0  read in
    real space projection operators read in
  non local Contribution for L=           0  read in
    real space projection operators read in
  non local Contribution for L=           1  read in
    real space projection operators read in
  non local Contribution for L=           1  read in
    real space projection operators read in
  non local Contribution for L=           2  read in
    real space projection operators read in
    PAW grid and wavefunctions read in

   number of l-projection  operators is LMAX  =           5
   number of lm-projection operators is LMMAX =          13

  PAW_PBE Fe_pv 02Aug2007               :
 energy of atom  1       EATOM=-2457.4239
 kinetic energy error for atom=    0.0055 (will be added to EATOM!!)
  PAW_PBE Te 08Apr2002                  :
 energy of atom  2       EATOM= -223.2721
 kinetic energy error for atom=    0.0004 (will be added to EATOM!!)


 POSCAR: bulk@JVASP-6667_mp-21273                
  positions in direct lattice
  velocities in cartesian coordinates
 exchange correlation table for  LEXCH =        8
   RHO(1)=    0.500       N(1)  =     2000
   RHO(2)=  100.500       N(2)  =     4000



--------------------------------------------------------------------------------------------------------


 ion  position               nearest neighbor table
   1  0.968  0.968  0.130-   2 2.55   2 2.55   2 2.55   2 2.55   3 2.59   4 2.59   3 2.59   4 2.59

   2  0.468  0.468  0.130-   1 2.55   1 2.55   1 2.55   1 2.55   3 2.59   4 2.59   3 2.59   4 2.59

   3  0.968  0.468  0.199-   1 2.59   2 2.59   1 2.59   2 2.59
   4  0.468  0.968  0.061-   1 2.59   2 2.59   1 2.59   2 2.59

  LATTYP: Found a simple tetragonal cell.
 ALAT       =     3.6067400000
 C/A-ratio  =     7.4941623183
  
  Lattice vectors:
  
 A1 = (   3.6067400000,   0.0000000000,   0.0000000000)
 A2 = (   0.0000000000,   3.6067400000,   0.0000000000)
 A3 = (   0.0000000000,   0.0000000000,  27.0294950000)


Analysis of symmetry for initial positions (statically):
=====================================================================
 Subroutine PRICEL returns:
 Original cell was already a primitive cell.
 

 Routine SETGRP: Setting up the symmetry group for a 
 simple tetragonal supercell.


 Subroutine GETGRP returns: Found 16 space group operations
 (whereof  1 operations were pure point group operations)
 out of a pool of 16 trial point group operations.


The static configuration has the point symmetry C_1 .
 The point group associated with its full space group is D_4h.


Analysis of symmetry for dynamics (positions and initial velocities):
=====================================================================
 Subroutine PRICEL returns:
 Original cell was already a primitive cell.
 

 Routine SETGRP: Setting up the symmetry group for a 
 simple tetragonal supercell.


 Subroutine GETGRP returns: Found 16 space group operations
 (whereof  1 operations were pure point group operations)
 out of a pool of 16 trial point group operations.


The dynamic configuration has the point symmetry C_1 .
 The point group associated with its full space group is D_4h.


Analysis of structural, dynamic, and magnetic symmetry:
=====================================================================
 Subroutine PRICEL returns:
 Original cell was already a primitive cell.
 

 Routine SETGRP: Setting up the symmetry group for a 
 simple tetragonal supercell.


 Subroutine GETGRP returns: Found  8 space group operations
 (whereof  1 operations were pure point group operations)
 out of a pool of 16 trial point group operations.


The (compounded) configuration has the point symmetry C_1 .
 The point group associated with its full space group is C_4h.


 KPOINTS: KPOINTS with grid den

Automatic generation of k-mesh.
Space group operators:
 irot       det(A)        alpha          n_x          n_y          n_z        tau_x        tau_y        tau_z
    1     1.000000     0.000000     1.000000     0.000000     0.000000     0.000000     0.000000     0.000000
    2    -1.000000     0.000000     1.000000     0.000000     0.000000     0.435037     0.435037     0.260068
    3     1.000000    90.000000     0.000000     0.000000    -1.000000     0.435037     0.500001     0.000000
    4    -1.000000    90.000000     0.000000     0.000000    -1.000000     0.000000     0.935038     0.260068
    5     1.000000   180.000000     0.000000     0.000000     1.000000     0.935036     0.935036     0.000000
    6    -1.000000   180.000000     0.000000     0.000000     1.000000     0.499999     0.499999     0.260068
    7     1.000000    90.000000     0.000000     0.000000     1.000000     0.499999     0.435037     0.000000
    8    -1.000000    90.000000     0.000000     0.000000     1.000000     0.935036     0.000000     0.260068
 
 Subroutine IBZKPT returns following result:
 ===========================================
 
 Found     43 irreducible k-points:
 
 Following reciprocal coordinates:
            Coordinates               Weight
  0.000000  0.000000  0.000000      1.000000
  0.076923  0.000000  0.000000      4.000000
  0.153846  0.000000  0.000000      4.000000
  0.230769  0.000000  0.000000      4.000000
  0.307692  0.000000  0.000000      4.000000
  0.384615  0.000000  0.000000      4.000000
  0.461538  0.000000  0.000000      4.000000
  0.076923  0.076923  0.000000      4.000000
  0.153846  0.076923  0.000000      4.000000
  0.230769  0.076923  0.000000      4.000000
  0.307692  0.076923  0.000000      4.000000
  0.384615  0.076923  0.000000      4.000000
  0.461538  0.076923  0.000000      4.000000
 -0.461538  0.076923  0.000000      4.000000
 -0.384615  0.076923  0.000000      4.000000
 -0.307692  0.076923  0.000000      4.000000
 -0.230769  0.076923  0.000000      4.000000
 -0.153846  0.076923  0.000000      4.000000
  0.153846  0.153846  0.000000      4.000000
  0.230769  0.153846  0.000000      4.000000
  0.307692  0.153846  0.000000      4.000000
  0.384615  0.153846  0.000000      4.000000
  0.461538  0.153846  0.000000      4.000000
 -0.461538  0.153846  0.000000      4.000000
 -0.384615  0.153846  0.000000      4.000000
 -0.307692  0.153846  0.000000      4.000000
 -0.230769  0.153846  0.000000      4.000000
  0.230769  0.230769  0.000000      4.000000
  0.307692  0.230769  0.000000      4.000000
  0.384615  0.230769  0.000000      4.000000
  0.461538  0.230769  0.000000      4.000000
 -0.461538  0.230769  0.000000      4.000000
 -0.384615  0.230769  0.000000      4.000000
 -0.307692  0.230769  0.000000      4.000000
  0.307692  0.307692  0.000000      4.000000
  0.384615  0.307692  0.000000      4.000000
  0.461538  0.307692  0.000000      4.000000
 -0.461538  0.307692  0.000000      4.000000
 -0.384615  0.307692  0.000000      4.000000
  0.384615  0.384615  0.000000      4.000000
  0.461538  0.384615  0.000000      4.000000
 -0.461538  0.384615  0.000000      4.000000
  0.461538  0.461538  0.000000      4.000000
 
 Following cartesian coordinates:
            Coordinates               Weight
  0.000000  0.000000  0.000000      1.000000
  0.021328  0.000000  0.000000      4.000000
  0.042655  0.000000  0.000000      4.000000
  0.063983  0.000000  0.000000      4.000000
  0.085310  0.000000  0.000000      4.000000
  0.106638  0.000000  0.000000      4.000000
  0.127966  0.000000  0.000000      4.000000
  0.021328  0.021328  0.000000      4.000000
  0.042655  0.021328  0.000000      4.000000
  0.063983  0.021328  0.000000      4.000000
  0.085310  0.021328  0.000000      4.000000
  0.106638  0.021328  0.000000      4.000000
  0.127966  0.021328  0.000000      4.000000
 -0.127966  0.021328  0.000000      4.000000
 -0.106638  0.021328  0.000000      4.000000
 -0.085310  0.021328  0.000000      4.000000
 -0.063983  0.021328  0.000000      4.000000
 -0.042655  0.021328  0.000000      4.000000
  0.042655  0.042655  0.000000      4.000000
  0.063983  0.042655  0.000000      4.000000
  0.085310  0.042655  0.000000      4.000000
  0.106638  0.042655  0.000000      4.000000
  0.127966  0.042655  0.000000      4.000000
 -0.127966  0.042655  0.000000      4.000000
 -0.106638  0.042655  0.000000      4.000000
 -0.085310  0.042655  0.000000      4.000000
 -0.063983  0.042655  0.000000      4.000000
  0.063983  0.063983  0.000000      4.000000
  0.085310  0.063983  0.000000      4.000000
  0.106638  0.063983  0.000000      4.000000
  0.127966  0.063983  0.000000      4.000000
 -0.127966  0.063983  0.000000      4.000000
 -0.106638  0.063983  0.000000      4.000000
 -0.085310  0.063983  0.000000      4.000000
  0.085310  0.085310  0.000000      4.000000
  0.106638  0.085310  0.000000      4.000000
  0.127966  0.085310  0.000000      4.000000
 -0.127966  0.085310  0.000000      4.000000
 -0.106638  0.085310  0.000000      4.000000
  0.106638  0.106638  0.000000      4.000000
  0.127966  0.106638  0.000000      4.000000
 -0.127966  0.106638  0.000000      4.000000
  0.127966  0.127966  0.000000      4.000000
 
 
 Subroutine IBZKPT_HF returns following result:
 ==============================================
 
 Found    169 k-points in 1st BZ
 the following    169 k-points will be used (e.g. in the exchange kernel)
 Following reciprocal coordinates:   # in IRBZ
  0.000000  0.000000  0.000000    0.00591716   1 t-inv F
  0.076923  0.000000  0.000000    0.00591716   2 t-inv F
  0.153846  0.000000  0.000000    0.00591716   3 t-inv F
  0.230769  0.000000  0.000000    0.00591716   4 t-inv F
  0.307692  0.000000  0.000000    0.00591716   5 t-inv F
  0.384615  0.000000  0.000000    0.00591716   6 t-inv F
  0.461538  0.000000  0.000000    0.00591716   7 t-inv F
  0.076923  0.076923  0.000000    0.00591716   8 t-inv F
  0.153846  0.076923  0.000000    0.00591716   9 t-inv F
  0.230769  0.076923  0.000000    0.00591716  10 t-inv F
  0.307692  0.076923  0.000000    0.00591716  11 t-inv F
  0.384615  0.076923  0.000000    0.00591716  12 t-inv F
  0.461538  0.076923  0.000000    0.00591716  13 t-inv F
 -0.461538  0.076923  0.000000    0.00591716  14 t-inv F
 -0.384615  0.076923  0.000000    0.00591716  15 t-inv F
 -0.307692  0.076923  0.000000    0.00591716  16 t-inv F
 -0.230769  0.076923  0.000000    0.00591716  17 t-inv F
 -0.153846  0.076923  0.000000    0.00591716  18 t-inv F
  0.153846  0.153846  0.000000    0.00591716  19 t-inv F
  0.230769  0.153846  0.000000    0.00591716  20 t-inv F
  0.307692  0.153846  0.000000    0.00591716  21 t-inv F
  0.384615  0.153846  0.000000    0.00591716  22 t-inv F
  0.461538  0.153846  0.000000    0.00591716  23 t-inv F
 -0.461538  0.153846  0.000000    0.00591716  24 t-inv F
 -0.384615  0.153846  0.000000    0.00591716  25 t-inv F
 -0.307692  0.153846  0.000000    0.00591716  26 t-inv F
 -0.230769  0.153846  0.000000    0.00591716  27 t-inv F
  0.230769  0.230769  0.000000    0.00591716  28 t-inv F
  0.307692  0.230769  0.000000    0.00591716  29 t-inv F
  0.384615  0.230769  0.000000    0.00591716  30 t-inv F
  0.461538  0.230769  0.000000    0.00591716  31 t-inv F
 -0.461538  0.230769  0.000000    0.00591716  32 t-inv F
 -0.384615  0.230769  0.000000    0.00591716  33 t-inv F
 -0.307692  0.230769  0.000000    0.00591716  34 t-inv F
  0.307692  0.307692  0.000000    0.00591716  35 t-inv F
  0.384615  0.307692  0.000000    0.00591716  36 t-inv F
  0.461538  0.307692  0.000000    0.00591716  37 t-inv F
 -0.461538  0.307692  0.000000    0.00591716  38 t-inv F
 -0.384615  0.307692  0.000000    0.00591716  39 t-inv F
  0.384615  0.384615  0.000000    0.00591716  40 t-inv F
  0.461538  0.384615  0.000000    0.00591716  41 t-inv F
 -0.461538  0.384615  0.000000    0.00591716  42 t-inv F
  0.461538  0.461538  0.000000    0.00591716  43 t-inv F
 -0.076923 -0.000000 -0.000000    0.00591716   2 t-inv F
 -0.000000  0.076923  0.000000    0.00591716   2 t-inv F
  0.000000 -0.076923 -0.000000    0.00591716   2 t-inv F
 -0.153846 -0.000000 -0.000000    0.00591716   3 t-inv F
 -0.000000  0.153846  0.000000    0.00591716   3 t-inv F
  0.000000 -0.153846 -0.000000    0.00591716   3 t-inv F
 -0.230769 -0.000000 -0.000000    0.00591716   4 t-inv F
 -0.000000  0.230769  0.000000    0.00591716   4 t-inv F
  0.000000 -0.230769 -0.000000    0.00591716   4 t-inv F
 -0.307692 -0.000000 -0.000000    0.00591716   5 t-inv F
 -0.000000  0.307692  0.000000    0.00591716   5 t-inv F
  0.000000 -0.307692 -0.000000    0.00591716   5 t-inv F
 -0.384615 -0.000000 -0.000000    0.00591716   6 t-inv F
 -0.000000  0.384615  0.000000    0.00591716   6 t-inv F
  0.000000 -0.384615 -0.000000    0.00591716   6 t-inv F
 -0.461538 -0.000000 -0.000000    0.00591716   7 t-inv F
 -0.000000  0.461538  0.000000    0.00591716   7 t-inv F
  0.000000 -0.461538 -0.000000    0.00591716   7 t-inv F
 -0.076923 -0.076923 -0.000000    0.00591716   8 t-inv F
 -0.076923  0.076923  0.000000    0.00591716   8 t-inv F
  0.076923 -0.076923 -0.000000    0.00591716   8 t-inv F
 -0.153846 -0.076923 -0.000000    0.00591716   9 t-inv F
 -0.076923  0.153846  0.000000    0.00591716   9 t-inv F
  0.076923 -0.153846 -0.000000    0.00591716   9 t-inv F
 -0.230769 -0.076923 -0.000000    0.00591716  10 t-inv F
 -0.076923  0.230769  0.000000    0.00591716  10 t-inv F
  0.076923 -0.230769 -0.000000    0.00591716  10 t-inv F
 -0.307692 -0.076923 -0.000000    0.00591716  11 t-inv F
 -0.076923  0.307692  0.000000    0.00591716  11 t-inv F
  0.076923 -0.307692 -0.000000    0.00591716  11 t-inv F
 -0.384615 -0.076923 -0.000000    0.00591716  12 t-inv F
 -0.076923  0.384615  0.000000    0.00591716  12 t-inv F
  0.076923 -0.384615 -0.000000    0.00591716  12 t-inv F
 -0.461538 -0.076923 -0.000000    0.00591716  13 t-inv F
 -0.076923  0.461538  0.000000    0.00591716  13 t-inv F
  0.076923 -0.461538 -0.000000    0.00591716  13 t-inv F
  0.461538 -0.076923 -0.000000    0.00591716  14 t-inv F
 -0.076923 -0.461538  0.000000    0.00591716  14 t-inv F
  0.076923  0.461538 -0.000000    0.00591716  14 t-inv F
  0.384615 -0.076923 -0.000000    0.00591716  15 t-inv F
 -0.076923 -0.384615  0.000000    0.00591716  15 t-inv F
  0.076923  0.384615 -0.000000    0.00591716  15 t-inv F
  0.307692 -0.076923 -0.000000    0.00591716  16 t-inv F
 -0.076923 -0.307692  0.000000    0.00591716  16 t-inv F
  0.076923  0.307692 -0.000000    0.00591716  16 t-inv F
  0.230769 -0.076923 -0.000000    0.00591716  17 t-inv F
 -0.076923 -0.230769  0.000000    0.00591716  17 t-inv F
  0.076923  0.230769 -0.000000    0.00591716  17 t-inv F
  0.153846 -0.076923 -0.000000    0.00591716  18 t-inv F
 -0.076923 -0.153846  0.000000    0.00591716  18 t-inv F
  0.076923  0.153846 -0.000000    0.00591716  18 t-inv F
 -0.153846 -0.153846 -0.000000    0.00591716  19 t-inv F
 -0.153846  0.153846  0.000000    0.00591716  19 t-inv F
  0.153846 -0.153846 -0.000000    0.00591716  19 t-inv F
 -0.230769 -0.153846 -0.000000    0.00591716  20 t-inv F
 -0.153846  0.230769  0.000000    0.00591716  20 t-inv F
  0.153846 -0.230769 -0.000000    0.00591716  20 t-inv F
 -0.307692 -0.153846 -0.000000    0.00591716  21 t-inv F
 -0.153846  0.307692  0.000000    0.00591716  21 t-inv F
  0.153846 -0.307692 -0.000000    0.00591716  21 t-inv F
 -0.384615 -0.153846 -0.000000    0.00591716  22 t-inv F
 -0.153846  0.384615  0.000000    0.00591716  22 t-inv F
  0.153846 -0.384615 -0.000000    0.00591716  22 t-inv F
 -0.461538 -0.153846 -0.000000    0.00591716  23 t-inv F
 -0.153846  0.461538  0.000000    0.00591716  23 t-inv F
  0.153846 -0.461538 -0.000000    0.00591716  23 t-inv F
  0.461538 -0.153846 -0.000000    0.00591716  24 t-inv F
 -0.153846 -0.461538  0.000000    0.00591716  24 t-inv F
  0.153846  0.461538 -0.000000    0.00591716  24 t-inv F
  0.384615 -0.153846 -0.000000    0.00591716  25 t-inv F
 -0.153846 -0.384615  0.000000    0.00591716  25 t-inv F
  0.153846  0.384615 -0.000000    0.00591716  25 t-inv F
  0.307692 -0.153846 -0.000000    0.00591716  26 t-inv F
 -0.153846 -0.307692  0.000000    0.00591716  26 t-inv F
  0.153846  0.307692 -0.000000    0.00591716  26 t-inv F
  0.230769 -0.153846 -0.000000    0.00591716  27 t-inv F
 -0.153846 -0.230769  0.000000    0.00591716  27 t-inv F
  0.153846  0.230769 -0.000000    0.00591716  27 t-inv F
 -0.230769 -0.230769 -0.000000    0.00591716  28 t-inv F
 -0.230769  0.230769  0.000000    0.00591716  28 t-inv F
  0.230769 -0.230769 -0.000000    0.00591716  28 t-inv F
 -0.307692 -0.230769 -0.000000    0.00591716  29 t-inv F
 -0.230769  0.307692  0.000000    0.00591716  29 t-inv F
  0.230769 -0.307692 -0.000000    0.00591716  29 t-inv F
 -0.384615 -0.230769 -0.000000    0.00591716  30 t-inv F
 -0.230769  0.384615  0.000000    0.00591716  30 t-inv F
  0.230769 -0.384615 -0.000000    0.00591716  30 t-inv F
 -0.461538 -0.230769 -0.000000    0.00591716  31 t-inv F
 -0.230769  0.461538  0.000000    0.00591716  31 t-inv F
  0.230769 -0.461538 -0.000000    0.00591716  31 t-inv F
  0.461538 -0.230769 -0.000000    0.00591716  32 t-inv F
 -0.230769 -0.461538  0.000000    0.00591716  32 t-inv F
  0.230769  0.461538 -0.000000    0.00591716  32 t-inv F
  0.384615 -0.230769 -0.000000    0.00591716  33 t-inv F
 -0.230769 -0.384615  0.000000    0.00591716  33 t-inv F
  0.230769  0.384615 -0.000000    0.00591716  33 t-inv F
  0.307692 -0.230769 -0.000000    0.00591716  34 t-inv F
 -0.230769 -0.307692  0.000000    0.00591716  34 t-inv F
  0.230769  0.307692 -0.000000    0.00591716  34 t-inv F
 -0.307692 -0.307692 -0.000000    0.00591716  35 t-inv F
 -0.307692  0.307692  0.000000    0.00591716  35 t-inv F
  0.307692 -0.307692 -0.000000    0.00591716  35 t-inv F
 -0.384615 -0.307692 -0.000000    0.00591716  36 t-inv F
 -0.307692  0.384615  0.000000    0.00591716  36 t-inv F
  0.307692 -0.384615 -0.000000    0.00591716  36 t-inv F
 -0.461538 -0.307692 -0.000000    0.00591716  37 t-inv F
 -0.307692  0.461538  0.000000    0.00591716  37 t-inv F
  0.307692 -0.461538 -0.000000    0.00591716  37 t-inv F
  0.461538 -0.307692 -0.000000    0.00591716  38 t-inv F
 -0.307692 -0.461538  0.000000    0.00591716  38 t-inv F
  0.307692  0.461538 -0.000000    0.00591716  38 t-inv F
  0.384615 -0.307692 -0.000000    0.00591716  39 t-inv F
 -0.307692 -0.384615  0.000000    0.00591716  39 t-inv F
  0.307692  0.384615 -0.000000    0.00591716  39 t-inv F
 -0.384615 -0.384615 -0.000000    0.00591716  40 t-inv F
 -0.384615  0.384615  0.000000    0.00591716  40 t-inv F
  0.384615 -0.384615 -0.000000    0.00591716  40 t-inv F
 -0.461538 -0.384615 -0.000000    0.00591716  41 t-inv F
 -0.384615  0.461538  0.000000    0.00591716  41 t-inv F
  0.384615 -0.461538 -0.000000    0.00591716  41 t-inv F
  0.461538 -0.384615 -0.000000    0.00591716  42 t-inv F
 -0.384615 -0.461538  0.000000    0.00591716  42 t-inv F
  0.384615  0.461538 -0.000000    0.00591716  42 t-inv F
 -0.461538 -0.461538 -0.000000    0.00591716  43 t-inv F
 -0.461538  0.461538  0.000000    0.00591716  43 t-inv F
  0.461538 -0.461538 -0.000000    0.00591716  43 t-inv F


--------------------------------------------------------------------------------------------------------




 Dimension of arrays:
   k-points           NKPTS =       43   k-points in BZ     NKDIM =       43   number of bands    NBANDS=     80
   number of dos      NEDOS =   5000   number of ions     NIONS =      4
   non local maximal  LDIM  =      6   non local SUM 2l+1 LMDIM =     18
   total plane-waves  NPLWV = 194400
   max r-space proj   IRMAX =      1   max aug-charges    IRDMAX=  32353
   dimension x,y,z NGX =    30 NGY =   30 NGZ =  216
   dimension x,y,z NGXF=    60 NGYF=   60 NGZF=  432
   support grid    NGXF=    60 NGYF=   60 NGZF=  432
   ions per type =               2   2
 NGX,Y,Z   is equivalent  to a cutoff of  13.83, 13.83, 13.29 a.u.
 NGXF,Y,Z  is equivalent  to a cutoff of  27.66, 27.66, 26.57 a.u.


 I would recommend the setting:
   dimension x,y,z NGX =    29 NGY =   29 NGZ =  216
 SYSTEM =  unknown system                          
 POSCAR =  bulk@JVASP-6667_mp-21273                

 Startparameter for this run:
   NWRITE =      2    write-flag & timer
   PREC   = accura    normal or accurate (medium, high low for compatibility)
   ISTART =      1    job   : 0-new  1-cont  2-samecut
   ICHARG =      0    charge: 1-file 2-atom 10-const
   ISPIN  =      1    spin polarized calculation?
   LNONCOLLINEAR =      T non collinear calculations
   LSORBIT =      T    spin-orbit coupling
   INIWAV =      1    electr: 0-lowe 1-rand  2-diag
   LASPH  =      F    aspherical Exc in radial PAW
   METAGGA=      F    non-selfconsistent MetaGGA calc.

 Electronic Relaxation 1
   ENCUT  =  600.0 eV  44.10 Ry    6.64 a.u.   7.20  7.20 53.98*2*pi/ulx,y,z
   ENINI  =  600.0     initial cutoff
   ENAUG  =  578.3 eV  augmentation charge cutoff
   NELM   =      1;   NELMIN=  2; NELMDL=  0     # of ELM steps 
   EDIFF  = 0.1E-04   stopping-criterion for ELM
   LREAL  =      F    real-space projection
   NLSPLINE    = F    spline interpolate recip. space projectors
   LCOMPAT=      F    compatible to vasp.4.4
   GGA_COMPAT  = T    GGA compatible to vasp.4.4-vasp.4.6
   LMAXPAW     = -100 max onsite density
   LMAXMIX     =    2 max onsite mixed and CHGCAR
   VOSKOWN=      0    Vosko Wilk Nusair interpolation
   ROPT   =    0.00000   0.00000
 Ionic relaxation
   EDIFFG = 0.1E-03   stopping-criterion for IOM
   NSW    =      0    number of steps for IOM
   NBLOCK =      1;   KBLOCK =      1    inner block; outer block 
   IBRION =     -1    ionic relax: 0-MD 1-quasi-New 2-CG
   NFREE  =      0    steps in history (QN), initial steepest desc. (CG)
   ISIF   =      2    stress and relaxation
   IWAVPR =     10    prediction:  0-non 1-charg 2-wave 3-comb
   ISYM   =      2    0-nonsym 1-usesym 2-fastsym
   LCORR  =      T    Harris-Foulkes like correction to forces

   POTIM  = 0.5000    time-step for ionic-motion
   TEIN   =    0.0    initial temperature
   TEBEG  =    0.0;   TEEND  =   0.0 temperature during run
   SMASS  =  -3.00    Nose mass-parameter (am)
   estimated Nose-frequenzy (Omega)   =  0.10E-29 period in steps =****** mass=  -0.297E-27a.u.
   SCALEE = 1.0000    scale energy and forces
   NPACO  =    256;   APACO  = 16.0  distance and # of slots for P.C.
   PSTRESS=    0.0 pullay stress

  Mass of Ions in am
   POMASS =  55.85127.60
  Ionic Valenz
   ZVAL   =  14.00  6.00
  Atomic Wigner-Seitz radii
   RWIGS  =  -1.00 -1.00
  virtual crystal weights 
   VCA    =   1.00  1.00
   NELECT =      40.0000    total number of electrons
   NUPDOWN=      -1.0000    fix difference up-down

 DOS related values:
   EMIN   =  10.00;   EMAX   =-10.00  energy-range for DOS
   EFERMI =   0.00
   ISMEAR =     0;   SIGMA  =   0.01  broadening in eV -4-tet -1-fermi 0-gaus

 Electronic relaxation 2 (details)
   IALGO  =      2    algorithm
   LDIAG  =      T    sub-space diagonalisation (order eigenvalues)
   LSUBROT=      F    optimize rotation matrix (better conditioning)
   TURBO    =      0    0=normal 1=particle mesh
   IRESTART =      0    0=no restart 2=restart with 2 vectors
   NREBOOT  =      0    no. of reboots
   NMIN     =      0    reboot dimension
   EREF     =   0.00    reference energy to select bands
   IMIX   =      4    mixing-type and parameters
     AMIX     =   0.20;   BMIX     =  0.00
     AMIX_MAG =   0.80;   BMIX_MAG =  0.00
     AMIN     =   0.10
     WC   =   100.;   INIMIX=   1;  MIXPRE=   1;  MAXMIX= -45

 Intra band minimization:
   WEIMIN = 0.0000     energy-eigenvalue tresh-hold
   EBREAK =  0.31E-07  absolut break condition
   DEPER  =   0.30     relativ break condition  

   TIME   =   0.40     timestep for ELM

  volume/ion in A,a.u.               =      87.90       593.20
  Fermi-wavevector in a.u.,A,eV,Ry     =   0.793242  1.499010  8.561230  0.629233
  Thomas-Fermi vector in A             =   1.899139

 Write flags
   LWAVE  =      F    write WAVECAR
   LCHARG =      F    write CHGCAR
   LVTOT  =      F    write LOCPOT, total local potential
   LVHAR  =      F    write LOCPOT, Hartree potential only
   LELF   =      F    write electronic localiz. function (ELF)
   LORBIT =     11    0 simple, 1 ext, 2 COOP (PROOUT)


 Dipole corrections
   LMONO  =      F    monopole corrections only (constant potential shift)
   LDIPOL =      F    correct potential (dipole corrections)
   IDIPOL =      0    1-x, 2-y, 3-z, 4-all directions 
   EPSILON=  1.0000000 bulk dielectric constant

 LDA+U is selected, type is set to LDAUTYPE =  2
   angular momentum for each species LDAUL =     2   -1
   U (eV)           for each species LDAUU =   0.0  0.0
   J (eV)           for each species LDAUJ =   0.0  0.0
 Exchange correlation treatment:
   GGA     =    --    GGA type
   LEXCH   =     8    internal setting for exchange type
   VOSKOWN=      0    Vosko Wilk Nusair interpolation
   LHFCALC =     F    Hartree Fock is set to
   LHFONE  =     F    Hartree Fock one center treatment
   AEXX    =    0.0000 exact exchange contribution

 Linear response parameters
   LEPSILON=     F    determine dielectric tensor
   LRPA    =     F    only Hartree local field effects (RPA)
   LNABLA  =     F    use nabla operator in PAW spheres
   LVEL    =     F    velocity operator in full k-point grid
   LINTERFAST=   F  fast interpolation
   KINTER  =     0    interpolate to denser k-point grid
   CSHIFT  =0.1000    complex shift for real part using Kramers Kronig
   OMEGAMAX=  -1.0    maximum frequency
   DEG_THRESHOLD= 0.2000000E-02 threshold for treating states as degnerate
   RTIME   =    0.100 relaxation time in fs

 Orbital magnetization related:
   ORBITALMAG=     F  switch on orbital magnetization
   LCHIMAG   =     F  perturbation theory with respect to B field
   DQ        =  0.001000  dq finite difference perturbation B field



--------------------------------------------------------------------------------------------------------


 Static calculation
 charge density and potential will be updated during run
 non collinear spin polarized calculation
 None: do nothing, only one-electron occupancies are recalculated
    band-by band algorithm
 perform Loewdin sub-space diagonalisation
    ordering is kept fixed
    before iterative eigenvector-optimisation
 modified Broyden-mixing scheme, WC =      100.0
 initial mixing is a Kerker type mixing with AMIX =  0.2000 and BMIX =      0.0000
 Hartree-type preconditioning will be used
 using additional bands           60
 reciprocal scheme for non local part
 use partial core corrections
 calculate Harris-corrections to forces   (improved forces if not selfconsistent)
 use gradient corrections 
 use of overlap-Matrix (Vanderbilt PP)
 Gauss-broadening in eV      SIGMA  =   0.01


--------------------------------------------------------------------------------------------------------


  energy-cutoff  :      600.00
  volume of cell :      351.62
      direct lattice vectors                 reciprocal lattice vectors
     3.606740000  0.000000000  0.000000000     0.277258688  0.000000000  0.000000000
     0.000000000  3.606740000  0.000000000     0.000000000  0.277258688  0.000000000
     0.000000000  0.000000000 27.029495000     0.000000000  0.000000000  0.036996622

  length of vectors
     3.606740000  3.606740000 27.029495000     0.277258688  0.277258688  0.036996622



 old parameters found on file WAVECAR:
  energy-cutoff  :      600.00
  volume of cell :      351.62
      direct lattice vectors                 reciprocal lattice vectors
     3.606740000  0.000000000  0.000000000     0.277258688  0.000000000  0.000000000
     0.000000000  3.606740000  0.000000000     0.000000000  0.277258688  0.000000000
     0.000000000  0.000000000 27.029495000     0.000000000  0.000000000  0.036996622

  length of vectors


 k-points in units of 2pi/SCALE and weight: KPOINTS with grid den
   0.00000000  0.00000000  0.00000000       0.006
   0.02132759  0.00000000  0.00000000       0.024
   0.04265518  0.00000000  0.00000000       0.024
   0.06398277  0.00000000  0.00000000       0.024
   0.08531037  0.00000000  0.00000000       0.024
   0.10663796  0.00000000  0.00000000       0.024
   0.12796555  0.00000000  0.00000000       0.024
   0.02132759  0.02132759  0.00000000       0.024
   0.04265518  0.02132759  0.00000000       0.024
   0.06398277  0.02132759  0.00000000       0.024
   0.08531037  0.02132759  0.00000000       0.024
   0.10663796  0.02132759  0.00000000       0.024
   0.12796555  0.02132759  0.00000000       0.024
  -0.12796555  0.02132759  0.00000000       0.024
  -0.10663796  0.02132759  0.00000000       0.024
  -0.08531037  0.02132759  0.00000000       0.024
  -0.06398277  0.02132759  0.00000000       0.024
  -0.04265518  0.02132759  0.00000000       0.024
   0.04265518  0.04265518  0.00000000       0.024
   0.06398277  0.04265518  0.00000000       0.024
   0.08531037  0.04265518  0.00000000       0.024
   0.10663796  0.04265518  0.00000000       0.024
   0.12796555  0.04265518  0.00000000       0.024
  -0.12796555  0.04265518  0.00000000       0.024
  -0.10663796  0.04265518  0.00000000       0.024
  -0.08531037  0.04265518  0.00000000       0.024
  -0.06398277  0.04265518  0.00000000       0.024
   0.06398277  0.06398277  0.00000000       0.024
   0.08531037  0.06398277  0.00000000       0.024
   0.10663796  0.06398277  0.00000000       0.024
   0.12796555  0.06398277  0.00000000       0.024
  -0.12796555  0.06398277  0.00000000       0.024
  -0.10663796  0.06398277  0.00000000       0.024
  -0.08531037  0.06398277  0.00000000       0.024
   0.08531037  0.08531037  0.00000000       0.024
   0.10663796  0.08531037  0.00000000       0.024
   0.12796555  0.08531037  0.00000000       0.024
  -0.12796555  0.08531037  0.00000000       0.024
  -0.10663796  0.08531037  0.00000000       0.024
   0.10663796  0.10663796  0.00000000       0.024
   0.12796555  0.10663796  0.00000000       0.024
  -0.12796555  0.10663796  0.00000000       0.024
   0.12796555  0.12796555  0.00000000       0.024

 k-points in reciprocal lattice and weights: KPOINTS with grid den
   0.00000000  0.00000000  0.00000000       0.006
   0.07692308  0.00000000  0.00000000       0.024
   0.15384615  0.00000000  0.00000000       0.024
   0.23076923  0.00000000  0.00000000       0.024
   0.30769231  0.00000000  0.00000000       0.024
   0.38461538  0.00000000  0.00000000       0.024
   0.46153846  0.00000000  0.00000000       0.024
   0.07692308  0.07692308  0.00000000       0.024
   0.15384615  0.07692308  0.00000000       0.024
   0.23076923  0.07692308  0.00000000       0.024
   0.30769231  0.07692308  0.00000000       0.024
   0.38461538  0.07692308  0.00000000       0.024
   0.46153846  0.07692308  0.00000000       0.024
  -0.46153846  0.07692308  0.00000000       0.024
  -0.38461538  0.07692308  0.00000000       0.024
  -0.30769231  0.07692308  0.00000000       0.024
  -0.23076923  0.07692308  0.00000000       0.024
  -0.15384615  0.07692308  0.00000000       0.024
   0.15384615  0.15384615  0.00000000       0.024
   0.23076923  0.15384615  0.00000000       0.024
   0.30769231  0.15384615  0.00000000       0.024
   0.38461538  0.15384615  0.00000000       0.024
   0.46153846  0.15384615  0.00000000       0.024
  -0.46153846  0.15384615  0.00000000       0.024
  -0.38461538  0.15384615  0.00000000       0.024
  -0.30769231  0.15384615  0.00000000       0.024
  -0.23076923  0.15384615  0.00000000       0.024
   0.23076923  0.23076923  0.00000000       0.024
   0.30769231  0.23076923  0.00000000       0.024
   0.38461538  0.23076923  0.00000000       0.024
   0.46153846  0.23076923  0.00000000       0.024
  -0.46153846  0.23076923  0.00000000       0.024
  -0.38461538  0.23076923  0.00000000       0.024
  -0.30769231  0.23076923  0.00000000       0.024
   0.30769231  0.30769231  0.00000000       0.024
   0.38461538  0.30769231  0.00000000       0.024
   0.46153846  0.30769231  0.00000000       0.024
  -0.46153846  0.30769231  0.00000000       0.024
  -0.38461538  0.30769231  0.00000000       0.024
   0.38461538  0.38461538  0.00000000       0.024
   0.46153846  0.38461538  0.00000000       0.024
  -0.46153846  0.38461538  0.00000000       0.024
   0.46153846  0.46153846  0.00000000       0.024

 position of ions in fractional coordinates (direct lattice) 
   0.96751900  0.96751900  0.13003400
   0.46751800  0.46751800  0.13003400
   0.96751900  0.46751800  0.19905100
   0.46751800  0.96751900  0.06101700

 position of ions in cartesian coordinates  (Angst):
   3.48958948  3.48958948  3.51475335
   1.68621587  1.68621587  3.51475335
   3.48958948  1.68621587  5.38024801
   1.68621587  3.48958948  1.64925870

 Euler angles ALPHA=     0.0000000  BETA=     0.0000000

 transformation matrix from SAXIS to cartesian coordinates
 ---------------------------------------------------------
     1.0000000 m_x    -0.0000000 m_y     0.0000000 m_z
     0.0000000 m_x     1.0000000 m_y     0.0000000 m_z
    -0.0000000 m_x     0.0000000 m_y     1.0000000 m_z

 transformation matrix from cartesian coordinates to SAXIS
 ---------------------------------------------------------
     1.0000000 m_x     0.0000000 m_y    -0.0000000 m_z
    -0.0000000 m_x     1.0000000 m_y     0.0000000 m_z
     0.0000000 m_x     0.0000000 m_y     1.0000000 m_z




--------------------------------------------------------------------------------------------------------


 k-point  1 :   0.0000 0.0000 0.0000  plane waves:   23270
 k-point  2 :   0.0769 0.0000 0.0000  plane waves:   23406
 k-point  3 :   0.1538 0.0000 0.0000  plane waves:   23462
 k-point  4 :   0.2308 0.0000 0.0000  plane waves:   23436
 k-point  5 :   0.3077 0.0000 0.0000  plane waves:   23480
 k-point  6 :   0.3846 0.0000 0.0000  plane waves:   23484
 k-point  7 :   0.4615 0.0000 0.0000  plane waves:   23512
 k-point  8 :   0.0769 0.0769 0.0000  plane waves:   23406
 k-point  9 :   0.1538 0.0769 0.0000  plane waves:   23434
 k-point 10 :   0.2308 0.0769 0.0000  plane waves:   23460
 k-point 11 :   0.3077 0.0769 0.0000  plane waves:   23494
 k-point 12 :   0.3846 0.0769 0.0000  plane waves:   23488
 k-point 13 :   0.4615 0.0769 0.0000  plane waves:   23510
 k-point 14 :  -0.4615 0.0769 0.0000  plane waves:   23510
 k-point 15 :  -0.3846 0.0769 0.0000  plane waves:   23488
 k-point 16 :  -0.3077 0.0769 0.0000  plane waves:   23494
 k-point 17 :  -0.2308 0.0769 0.0000  plane waves:   23460
 k-point 18 :  -0.1538 0.0769 0.0000  plane waves:   23434
 k-point 19 :   0.1538 0.1538 0.0000  plane waves:   23440
 k-point 20 :   0.2308 0.1538 0.0000  plane waves:   23430
 k-point 21 :   0.3077 0.1538 0.0000  plane waves:   23470
 k-point 22 :   0.3846 0.1538 0.0000  plane waves:   23486
 k-point 23 :   0.4615 0.1538 0.0000  plane waves:   23502
 k-point 24 :  -0.4615 0.1538 0.0000  plane waves:   23502
 k-point 25 :  -0.3846 0.1538 0.0000  plane waves:   23486
 k-point 26 :  -0.3077 0.1538 0.0000  plane waves:   23470
 k-point 27 :  -0.2308 0.1538 0.0000  plane waves:   23430
 k-point 28 :   0.2308 0.2308 0.0000  plane waves:   23468
 k-point 29 :   0.3077 0.2308 0.0000  plane waves:   23448
 k-point 30 :   0.3846 0.2308 0.0000  plane waves:   23440
 k-point 31 :   0.4615 0.2308 0.0000  plane waves:   23426
 k-point 32 :  -0.4615 0.2308 0.0000  plane waves:   23426
 k-point 33 :  -0.3846 0.2308 0.0000  plane waves:   23440
 k-point 34 :  -0.3077 0.2308 0.0000  plane waves:   23448
 k-point 35 :   0.3077 0.3077 0.0000  plane waves:   23500
 k-point 36 :   0.3846 0.3077 0.0000  plane waves:   23464
 k-point 37 :   0.4615 0.3077 0.0000  plane waves:   23440
 k-point 38 :  -0.4615 0.3077 0.0000  plane waves:   23440
 k-point 39 :  -0.3846 0.3077 0.0000  plane waves:   23464
 k-point 40 :   0.3846 0.3846 0.0000  plane waves:   23508
 k-point 41 :   0.4615 0.3846 0.0000  plane waves:   23472
 k-point 42 :  -0.4615 0.3846 0.0000  plane waves:   23472
 k-point 43 :   0.4615 0.4615 0.0000  plane waves:   23568

 maximum and minimum number of plane-waves per node :     23568    23270

 maximum number of plane-waves:     23568
 maximum index in each direction: 
   IXMAX=    7   IYMAX=    7   IZMAX=   53
   IXMIN=   -7   IYMIN=   -7   IZMIN=  -53

 NGX is ok and might be reduce to  30
 NGY is ok and might be reduce to  30
 NGZ is ok and might be reduce to 214

 serial   3D FFT for wavefunctions
 parallel 3D FFT for charge:
    minimum data exchange during FFTs selected (reduces bandwidth)


 total amount of memory used by VASP on root node   316753. kBytes
========================================================================

   base      :      30000. kBytes
   nonl-proj :     146786. kBytes
   fftplans  :       8384. kBytes
   grid      :      49766. kBytes
   one-center:        248. kBytes
   wavefun   :      81569. kBytes

     INWAV:  cpu time    4.3160: real time    5.6790
 Broyden mixing: mesh for mixing (old mesh)
   NGX = 15   NGY = 15   NGZ =107
  (NGX  = 60   NGY  = 60   NGZ  =432)
  gives a total of  24075 points

 charge density for first step will be calculated from the start-wavefunctions


--------------------------------------------------------------------------------------------------------


 Maximum index for augmentation-charges         2252 (set IRDMAX)


--------------------------------------------------------------------------------------------------------


 initial charge from wavefunction
 First call to EWALD:  gamma=   0.251
 Maximum number of real-space cells 5x 5x 1
 Maximum number of reciprocal cells 2x 2x 9

 FEWALD executed in parallel
    FEWALD:  cpu time    0.0040: real time    0.0044


----------------------------------------- Iteration    1(   1)  ---------------------------------------


    POTLOK:  cpu time    1.0280: real time    1.0239
    SETDIJ:  cpu time    0.0360: real time    0.0366
atom =   1  type =  1  l = 2

 onsite density matrix

spin component  1

  0.7459  0.0000  0.0000 -0.0000 -0.0000      0.0000 -0.0000  0.0000  0.0000  0.0056
  0.0000  0.8443 -0.0000  0.0000  0.0000      0.0000 -0.0000  0.0000 -0.0031  0.0000
  0.0000 -0.0000  0.8179  0.0000 -0.0000     -0.0000 -0.0000  0.0000 -0.0000 -0.0000
 -0.0000  0.0000  0.0000  0.8443  0.0000     -0.0000  0.0031  0.0000 -0.0000 -0.0000
 -0.0000  0.0000 -0.0000  0.0000  0.9150     -0.0056 -0.0000  0.0000  0.0000  0.0000

spin component  2

  0.0000  0.0016  0.0000  0.0000  0.0000      0.0000  0.0000  0.0000 -0.0016 -0.0000
 -0.0080  0.0000  0.0000  0.0000  0.0000     -0.0000  0.0000 -0.0103  0.0000 -0.0022
 -0.0000  0.0000 -0.0000 -0.0044 -0.0000      0.0000  0.0044 -0.0000  0.0000 -0.0000
 -0.0000 -0.0000  0.0103  0.0000 -0.0022      0.0080  0.0000  0.0000  0.0000 -0.0000
  0.0000  0.0000  0.0000  0.0051 -0.0000      0.0000  0.0051  0.0000 -0.0000 -0.0000

spin component  3

  0.0000 -0.0080 -0.0000 -0.0000  0.0000     -0.0000  0.0000 -0.0000 -0.0080 -0.0000
  0.0016  0.0000  0.0000 -0.0000  0.0000     -0.0000 -0.0000 -0.0044 -0.0000 -0.0051
  0.0000  0.0000 -0.0000  0.0103  0.0000     -0.0000  0.0103  0.0000 -0.0000 -0.0000
  0.0000  0.0000 -0.0044  0.0000  0.0051      0.0016 -0.0000 -0.0000 -0.0000  0.0000
  0.0000  0.0000 -0.0000 -0.0022 -0.0000      0.0000  0.0022  0.0000  0.0000  0.0000

spin component  4

  0.5890 -0.0000 -0.0000  0.0000 -0.0000      0.0000 -0.0000 -0.0000  0.0000 -0.0187
 -0.0000  0.3218  0.0000 -0.0000 -0.0000      0.0000  0.0000 -0.0000 -0.0122  0.0000
 -0.0000  0.0000  0.5269 -0.0000 -0.0000      0.0000  0.0000  0.0000 -0.0000  0.0000
  0.0000 -0.0000 -0.0000  0.3218 -0.0000     -0.0000  0.0122  0.0000  0.0000 -0.0000
 -0.0000 -0.0000 -0.0000 -0.0000  0.2329      0.0187 -0.0000 -0.0000  0.0000  0.0000

 occupancies and eigenvectors

  o =  0.2318  v = -0.0000  0.0022 -0.0000 -0.0078  0.0000  0.0144  0.0000  0.0000  0.0000  0.9599      0.0000 -0.0078  0.0000 -0.0022 -0.0000 -0.0503  0.0000  0.0000 -0.0000  0.2752
  o =  0.3093  v =  0.0259  0.0000 -0.0000  0.0000  0.0000 -0.0000  0.7069 -0.0000  0.0003  0.0000      0.0000  0.0000 -0.0000  0.0000  0.0050 -0.0000 -0.0003  0.0000  0.7069  0.0000
  o =  0.3335  v = -0.0000 -0.0000 -0.0003  0.0000 -0.0000  0.0000 -0.7068  0.0000  0.0068  0.0000      0.0000 -0.0000 -0.0301  0.0000 -0.0000  0.0000  0.0068 -0.0000  0.7068 -0.0000
  o =  0.5267  v = -0.0000  0.0135  0.0000 -0.0041 -0.0000  0.0000 -0.0000 -0.2906  0.0000 -0.0000      0.0000  0.0041  0.0000  0.0135  0.0000 -0.0000  0.0000  0.9566 -0.0000 -0.0000
  o =  0.5899  v = -0.0000 -0.0002  0.0000  0.0074  0.0000  0.0308 -0.0000  0.0000  0.0000 -0.0522      0.0000  0.0074  0.0000  0.0002  0.0000 -0.9981  0.0000 -0.0000 -0.0000 -0.0016
  o =  0.7460  v =  0.9991 -0.0000  0.0000 -0.0000  0.0000  0.0000 -0.0182 -0.0000 -0.0000 -0.0000      0.0000  0.0000 -0.0000 -0.0000 -0.0338 -0.0000  0.0000  0.0000 -0.0182 -0.0000
  o =  0.8183  v = -0.0000  0.0000  0.7417 -0.0000 -0.0000  0.0000  0.0143 -0.0000  0.0158 -0.0000      0.0000 -0.0000 -0.6701 -0.0000 -0.0000 -0.0000  0.0158  0.0000 -0.0143 -0.0000
  o =  0.8413  v =  0.0000 -0.6580 -0.0000  0.2585 -0.0000  0.0000  0.0000 -0.0073 -0.0000  0.0000      0.0000 -0.2585  0.0000 -0.6580  0.0000 -0.0000 -0.0000  0.0186 -0.0000 -0.0000
  o =  0.8476  v = -0.0000  0.7062 -0.0000 -0.0344  0.0000  0.0099 -0.0000 -0.0000 -0.0000 -0.0006      0.0000 -0.0344 -0.0000 -0.7062 -0.0000 -0.0005 -0.0000 -0.0000 -0.0000 -0.0120
  o =  0.9152  v =  0.0336  0.0000  0.0000 -0.0000 -0.0000  0.0000 -0.0041  0.0000 -0.0000 -0.0000      0.0000 -0.0000 -0.0000 -0.0000  0.9994 -0.0000  0.0000 -0.0000 -0.0041 -0.0000
atom =   2  type =  1  l = 2

 onsite density matrix

spin component  1

  0.7459 -0.0000  0.0000  0.0000 -0.0000      0.0000 -0.0000  0.0000  0.0000  0.0056
 -0.0000  0.8443  0.0000  0.0000 -0.0000      0.0000 -0.0000 -0.0000 -0.0031  0.0000
  0.0000  0.0000  0.8179  0.0000  0.0000     -0.0000  0.0000  0.0000  0.0000 -0.0000
  0.0000  0.0000  0.0000  0.8443  0.0000     -0.0000  0.0031 -0.0000 -0.0000 -0.0000
 -0.0000 -0.0000  0.0000  0.0000  0.9150     -0.0056 -0.0000  0.0000  0.0000  0.0000

spin component  2

 -0.0000  0.0016  0.0000  0.0000 -0.0000     -0.0000  0.0000  0.0000 -0.0016  0.0000
 -0.0080 -0.0000  0.0000 -0.0000  0.0000     -0.0000 -0.0000 -0.0103 -0.0000 -0.0022
 -0.0000  0.0000  0.0000 -0.0044 -0.0000      0.0000  0.0044 -0.0000  0.0000 -0.0000
 -0.0000 -0.0000  0.0103 -0.0000 -0.0022      0.0080 -0.0000  0.0000 -0.0000 -0.0000
 -0.0000  0.0000  0.0000  0.0051  0.0000      0.0000  0.0051  0.0000 -0.0000  0.0000

spin component  3

 -0.0000 -0.0080 -0.0000 -0.0000 -0.0000     -0.0000  0.0000 -0.0000 -0.0080 -0.0000
  0.0016 -0.0000  0.0000 -0.0000  0.0000     -0.0000 -0.0000 -0.0044  0.0000 -0.0051
  0.0000  0.0000  0.0000  0.0103  0.0000     -0.0000  0.0103  0.0000 -0.0000 -0.0000
  0.0000 -0.0000 -0.0044 -0.0000  0.0051      0.0016  0.0000 -0.0000 -0.0000  0.0000
 -0.0000  0.0000 -0.0000 -0.0022  0.0000     -0.0000  0.0022  0.0000  0.0000  0.0000

spin component  4

  0.5890 -0.0000 -0.0000  0.0000 -0.0000      0.0000 -0.0000  0.0000  0.0000 -0.0187
 -0.0000  0.3218  0.0000 -0.0000 -0.0000      0.0000  0.0000  0.0000 -0.0122  0.0000
 -0.0000  0.0000  0.5269 -0.0000  0.0000     -0.0000 -0.0000  0.0000 -0.0000  0.0000
  0.0000 -0.0000 -0.0000  0.3218 -0.0000     -0.0000  0.0122  0.0000  0.0000 -0.0000
 -0.0000 -0.0000  0.0000 -0.0000  0.2329      0.0187 -0.0000 -0.0000  0.0000  0.0000

 occupancies and eigenvectors

  o =  0.2318  v = -0.0000  0.0034 -0.0000 -0.0074  0.0000  0.0220  0.0000  0.0000 -0.0000  0.9061      0.0000 -0.0074  0.0000 -0.0034  0.0000 -0.0475 -0.0000 -0.0000 -0.0000  0.4196
  o =  0.3093  v =  0.0259  0.0000 -0.0000 -0.0000  0.0000 -0.0000  0.7069  0.0000  0.0003  0.0000      0.0000 -0.0000 -0.0000  0.0000  0.0050 -0.0000 -0.0003  0.0000  0.7069  0.0000
  o =  0.3335  v =  0.0000 -0.0000  0.0148  0.0000  0.0000  0.0000  0.6146 -0.0000 -0.3490 -0.0000      0.0000 -0.0000  0.0262  0.0000  0.0000 -0.0000 -0.3490  0.0000 -0.6146 -0.0000
  o =  0.5267  v =  0.0000 -0.0134  0.0000 -0.0046  0.0000  0.0000 -0.0000 -0.3259 -0.0000 -0.0000      0.0000  0.0046  0.0000 -0.0134  0.0000 -0.0000 -0.0000 -0.9452  0.0000 -0.0000
  o =  0.5899  v = -0.0000  0.0062 -0.0000  0.0041 -0.0000 -0.8357  0.0000  0.0000  0.0000 -0.0286      0.0000  0.0041  0.0000 -0.0062 -0.0000 -0.5466  0.0000  0.0000 -0.0000  0.0437
  o =  0.7460  v =  0.9991  0.0000  0.0000 -0.0000  0.0000 -0.0000 -0.0182  0.0000 -0.0000 -0.0000      0.0000  0.0000 -0.0000 -0.0000 -0.0338 -0.0000  0.0000  0.0000 -0.0182 -0.0000
  o =  0.8183  v = -0.0000 -0.0000  0.9994  0.0000 -0.0000 -0.0000  0.0004 -0.0000  0.0213  0.0000      0.0000 -0.0000 -0.0173 -0.0000 -0.0000 -0.0000  0.0213  0.0000 -0.0004  0.0000
  o =  0.8413  v =  0.0000 -0.5097 -0.0000  0.4899 -0.0000 -0.0000  0.0000 -0.0139  0.0000  0.0000      0.0000 -0.4899  0.0000 -0.5097  0.0000 -0.0000  0.0000  0.0144  0.0000 -0.0000
  o =  0.8476  v =  0.0000 -0.7023 -0.0000  0.0819  0.0000 -0.0098 -0.0000  0.0000 -0.0000  0.0014      0.0000  0.0819 -0.0000  0.7023  0.0000  0.0011  0.0000  0.0000  0.0000  0.0120
  o =  0.9152  v = -0.0336 -0.0000 -0.0000  0.0000  0.0000 -0.0000  0.0041 -0.0000  0.0000  0.0000      0.0000 -0.0000 -0.0000  0.0000 -0.9994  0.0000 -0.0000  0.0000  0.0041  0.0000
    EDDIAG:  cpu time    0.0000: real time    0.0000
       DOS:  cpu time    0.0000: real time    0.0017
    --------------------------------------------
      LOOP:  cpu time    1.0640: real time    1.0657

 eigenvalue-minimisations  :     0
 total energy-change (2. order) :-0.2319360E+02  ( 0.0000000E+00)
 number of electron      39.9999987 magnetization       0.0000000      0.0000000      4.3793208
 augmentation part       14.5729799 magnetization       0.0000000      0.0000000      3.2706928

 Free energy of the ion-electron system (eV)
  ---------------------------------------------------
  alpha Z        PSCENC =        21.35532532
  Ewald energy   TEWEN  =     15290.16457999
  -Hartree energ DENC   =    -19869.44126840
  -exchange      EXHF   =         0.00000000
  -V(xc)+E(xc)   XCENC  =        85.28035845
  PAW double counting   =      5419.60895662    -5526.29100953
  entropy T*S    EENTRO =        -0.00037236
  eigenvalues    EBANDS =      -805.25018871
  atomic energy  EATOM  =      5361.38001831
  Solvation  Ediel_sol  =         0.00000000
  ---------------------------------------------------
  free energy    TOTEN  =       -23.19360032 eV

  energy without entropy =      -23.19322796  energy(sigma->0) =      -23.19341414


--------------------------------------------------------------------------------------------------------




 average (electrostatic) potential at core
  the test charge radii are     0.9500  1.1897
  (the norm of the test charge is              1.0000)
       1 -85.0797       2 -85.0797       3 -96.1398       4 -96.1398



 E-fermi :  -1.4139     XC(G=0):  -3.0263     alpha+bet : -3.1736


 k-point     1 :       0.0000    0.0000    0.0000
  band No.  band energies     occupation 
      1     -56.5462      1.00000
      2     -56.3914      1.00000
      3     -56.0166      1.00000
      4     -55.9963      1.00000
      5     -55.3827      1.00000
      6     -55.2041      1.00000
      7     -53.6951      1.00000
      8     -53.5304      1.00000
      9     -53.2101      1.00000
     10     -53.1765      1.00000
     11     -52.9420      1.00000
     12     -52.7437      1.00000
     13     -14.1991      1.00000
     14     -14.1866      1.00000
     15     -13.5065      1.00000
     16     -13.4944      1.00000
     17      -7.2119      1.00000
     18      -6.9126      1.00000
     19      -6.3751      1.00000
     20      -5.4137      1.00000
     21      -5.1874      1.00000
     22      -5.1716      1.00000
     23      -4.9645      1.00000
     24      -4.0820      1.00000
     25      -4.0189      1.00000
     26      -3.7938      1.00000
     27      -3.5872      1.00000
     28      -3.5823      1.00000
     29      -3.3860      1.00000
     30      -3.3280      1.00000
     31      -3.2328      1.00000
     32      -2.6756      1.00000
     33      -2.6593      1.00000
     34      -2.6380      1.00000
     35      -2.5630      1.00000
     36      -2.2232      1.00000
     37      -1.9696      1.00000
     38      -1.6676      1.00000
     39      -1.5726      1.00000
     40      -1.5014      1.00000
     41      -0.4957      0.00000
     42      -0.3708      0.00000
     43      -0.1178      0.00000
     44       0.1099      0.00000
     45       0.3292      0.00000
     46       0.4230      0.00000
     47       0.7154      0.00000
     48       1.1353      0.00000
     49       1.5871      0.00000
     50       1.7989      0.00000
     51       2.4496      0.00000
     52       2.5061      0.00000
     53       2.9324      0.00000
     54       2.9599      0.00000
     55       3.3734      0.00000
     56       3.4037      0.00000
     57       3.5390      0.00000
     58       3.5690      0.00000
     59       3.9113      0.00000
     60       4.0411      0.00000
     61       4.0791      0.00000
     62       4.3907      0.00000
     63       4.3972      0.00000
     64       4.4027      0.00000
     65       4.4596      0.00000
     66       4.9750      0.00000
     67       5.0766      0.00000
     68       5.1970      0.00000
     69       5.3074      0.00000
     70       5.4232      0.00000
     71       5.4670      0.00000
     72       5.6249      0.00000
     73       5.6636      0.00000
     74       5.7030      0.00000
     75       6.5786      0.00000
     76       6.7083      0.00000
     77       7.0314      0.00000
     78       7.1167      0.00000
     79       8.4261      0.00000
     80       8.4584      0.00000

 k-point     2 :       0.0769    0.0000    0.0000
  band No.  band energies     occupation 
      1     -56.5441      1.00000
      2     -56.3937      1.00000
      3     -56.0163      1.00000
      4     -55.9966      1.00000
      5     -55.3802      1.00000
      6     -55.2068      1.00000
      7     -53.6928      1.00000
      8     -53.5329      1.00000
      9     -53.2096      1.00000
     10     -53.1769      1.00000
     11     -52.9393      1.00000
     12     -52.7468      1.00000
     13     -14.1517      1.00000
     14     -14.1395      1.00000
     15     -13.4720      1.00000
     16     -13.4604      1.00000
     17      -7.1543      1.00000
     18      -6.8562      1.00000
     19      -6.3469      1.00000
     20      -5.4278      1.00000
     21      -5.2185      1.00000
     22      -5.1632      1.00000
     23      -4.9271      1.00000
     24      -4.1667      1.00000
     25      -4.0115      1.00000
     26      -3.8425      1.00000
     27      -3.7341      1.00000
     28      -3.5505      1.00000
     29      -3.4705      1.00000
     30      -3.4033      1.00000
     31      -3.0578      1.00000
     32      -2.9565      1.00000
     33      -2.6899      1.00000
     34      -2.6159      1.00000
     35      -2.5401      1.00000
     36      -2.3624      1.00000
     37      -2.0972      1.00000
     38      -1.8544      1.00000
     39      -1.5142      1.00000
     40      -1.3111      0.00000
     41      -0.5148      0.00000
     42      -0.4208      0.00000
     43      -0.3885      0.00000
     44       0.0597      0.00000
     45       0.2595      0.00000
     46       0.3039      0.00000
     47       0.4677      0.00000
     48       0.9957      0.00000
     49       1.7454      0.00000
     50       1.9688      0.00000
     51       2.5110      0.00000
     52       2.5740      0.00000
     53       3.0152      0.00000
     54       3.0451      0.00000
     55       3.4658      0.00000
     56       3.5075      0.00000
     57       3.6136      0.00000
     58       3.6377      0.00000
     59       4.1859      0.00000
     60       4.2363      0.00000
     61       4.3810      0.00000
     62       4.5381      0.00000
     63       4.5713      0.00000
     64       4.6040      0.00000
     65       4.7123      0.00000
     66       4.8019      0.00000
     67       5.0483      0.00000
     68       5.2214      0.00000
     69       5.2710      0.00000
     70       5.4110      0.00000
     71       5.4646      0.00000
     72       5.6273      0.00000
     73       5.7512      0.00000
     74       5.7969      0.00000
     75       6.5576      0.00000
     76       6.6887      0.00000
     77       7.1418      0.00000
     78       7.2158      0.00000
     79       8.3341      0.00000
     80       8.3931      0.00000

 k-point     3 :       0.1538    0.0000    0.0000
  band No.  band energies     occupation 
      1     -56.5377      1.00000
      2     -56.4006      1.00000
      3     -56.0153      1.00000
      4     -55.9973      1.00000
      5     -55.3729      1.00000
      6     -55.2148      1.00000
      7     -53.6862      1.00000
      8     -53.5404      1.00000
      9     -53.2082      1.00000
     10     -53.1783      1.00000
     11     -52.9312      1.00000
     12     -52.7557      1.00000
     13     -14.0140      1.00000
     14     -14.0026      1.00000
     15     -13.3741      1.00000
     16     -13.3639      1.00000
     17      -6.9875      1.00000
     18      -6.6940      1.00000
     19      -6.2738      1.00000
     20      -5.5458      1.00000
     21      -5.2765      1.00000
     22      -5.1267      1.00000
     23      -4.8203      1.00000
     24      -4.5103      1.00000
     25      -4.1495      1.00000
     26      -4.0127      1.00000
     27      -3.8494      1.00000
     28      -3.6612      1.00000
     29      -3.6336      1.00000
     30      -3.5865      1.00000
     31      -3.3863      1.00000
     32      -2.8685      1.00000
     33      -2.7806      1.00000
     34      -2.5524      1.00000
     35      -2.5138      1.00000
     36      -2.4450      1.00000
     37      -2.2795      1.00000
     38      -2.2054      1.00000
     39      -1.3504      0.00000
     40      -1.1525      0.00000
     41      -1.0687      0.00000
     42      -0.5833      0.00000
     43      -0.4208      0.00000
     44      -0.2019      0.00000
     45       0.0599      0.00000
     46       0.2253      0.00000
     47       0.2648      0.00000
     48       0.9747      0.00000
     49       2.0034      0.00000
     50       2.2245      0.00000
     51       2.6198      0.00000
     52       2.7168      0.00000
     53       3.2253      0.00000
     54       3.2614      0.00000
     55       3.6149      0.00000
     56       3.6648      0.00000
     57       3.7332      0.00000
     58       3.7397      0.00000
     59       4.0766      0.00000
     60       4.2638      0.00000
     61       4.3486      0.00000
     62       4.5555      0.00000
     63       4.6329      0.00000
     64       4.8303      0.00000
     65       4.9942      0.00000
     66       5.1604      0.00000
     67       5.3883      0.00000
     68       5.4745      0.00000
     69       5.7141      0.00000
     70       5.9768      0.00000
     71       6.0168      0.00000
     72       6.1964      0.00000
     73       6.2422      0.00000
     74       6.3360      0.00000
     75       6.5447      0.00000
     76       6.6948      0.00000
     77       7.3779      0.00000
     78       7.4452      0.00000
     79       8.0565      0.00000
     80       8.1813      0.00000

 k-point     4 :       0.2308    0.0000    0.0000
  band No.  band energies     occupation 
      1     -56.5275      1.00000
      2     -56.4115      1.00000
      3     -56.0138      1.00000
      4     -55.9986      1.00000
      5     -55.3612      1.00000
      6     -55.2275      1.00000
      7     -53.6755      1.00000
      8     -53.5522      1.00000
      9     -53.2058      1.00000
     10     -53.1806      1.00000
     11     -52.9182      1.00000
     12     -52.7698      1.00000
     13     -13.7998      1.00000
     14     -13.7896      1.00000
     15     -13.2304      1.00000
     16     -13.2225      1.00000
     17      -6.7364      1.00000
     18      -6.4584      1.00000
     19      -6.2037      1.00000
     20      -5.8257      1.00000
     21      -5.4370      1.00000
     22      -5.0577      1.00000
     23      -5.0449      1.00000
     24      -4.7801      1.00000
     25      -4.6547      1.00000
     26      -4.3440      1.00000
     27      -3.9254      1.00000
     28      -3.9244      1.00000
     29      -3.7275      1.00000
     30      -3.7194      1.00000
     31      -3.1809      1.00000
     32      -2.9277      1.00000
     33      -2.8785      1.00000
     34      -2.5681      1.00000
     35      -2.5653      1.00000
     36      -2.4928      1.00000
     37      -2.4221      1.00000
     38      -2.1432      1.00000
     39      -1.8038      1.00000
     40      -1.2650      0.00000
     41      -0.7983      0.00000
     42      -0.7966      0.00000
     43      -0.6049      0.00000
     44      -0.3382      0.00000
     45      -0.1476      0.00000
     46       0.2532      0.00000
     47       0.2909      0.00000
     48       0.9965      0.00000
     49       2.3106      0.00000
     50       2.3210      0.00000
     51       2.5553      0.00000
     52       2.5580      0.00000
     53       3.4049      0.00000
     54       3.5197      0.00000
     55       3.5549      0.00000
     56       3.5985      0.00000
     57       3.9393      0.00000
     58       4.0434      0.00000
     59       4.2682      0.00000
     60       4.3296      0.00000
     61       4.5513      0.00000
     62       4.8304      0.00000
     63       4.9279      0.00000
     64       4.9662      0.00000
     65       5.0235      0.00000
     66       5.0873      0.00000
     67       5.7424      0.00000
     68       5.8051      0.00000
     69       6.0973      0.00000
     70       6.3595      0.00000
     71       6.4540      0.00000
     72       6.4569      0.00000
     73       7.3416      0.00000
     74       7.4668      0.00000
     75       7.5131      0.00000
     76       7.5624      0.00000
     77       7.7202      0.00000
     78       7.7843      0.00000
     79       8.0761      0.00000
     80       8.1954      0.00000

 k-point     5 :       0.3077    0.0000    0.0000
  band No.  band energies     occupation 
      1     -56.5139      1.00000
      2     -56.4259      1.00000
      3     -56.0118      1.00000
      4     -56.0002      1.00000
      5     -55.3456      1.00000
      6     -55.2441      1.00000
      7     -53.6612      1.00000
      8     -53.5677      1.00000
      9     -53.2027      1.00000
     10     -53.1836      1.00000
     11     -52.9010      1.00000
     12     -52.7883      1.00000
     13     -13.5356      1.00000
     14     -13.5269      1.00000
     15     -13.0741      1.00000
     16     -13.0694      1.00000
     17      -6.5171      1.00000
     18      -6.3204      1.00000
     19      -6.2554      1.00000
     20      -6.1498      1.00000
     21      -5.8697      1.00000
     22      -5.4934      1.00000
     23      -5.2946      1.00000
     24      -4.9402      1.00000
     25      -4.5873      1.00000
     26      -4.4363      1.00000
     27      -4.0231      1.00000
     28      -3.9359      1.00000
     29      -3.8988      1.00000
     30      -3.6149      1.00000
     31      -3.1159      1.00000
     32      -3.0132      1.00000
     33      -2.9034      1.00000
     34      -2.8995      1.00000
     35      -2.7006      1.00000
     36      -2.4292      1.00000
     37      -2.3471      1.00000
     38      -2.1610      1.00000
     39      -1.9470      1.00000
     40      -1.2688      0.00000
     41      -1.1039      0.00000
     42      -0.8621      0.00000
     43      -0.5060      0.00000
     44      -0.3628      0.00000
     45      -0.2434      0.00000
     46       0.3208      0.00000
     47       0.3623      0.00000
     48       1.0065      0.00000
     49       1.6756      0.00000
     50       1.9786      0.00000
     51       2.6805      0.00000
     52       2.9582      0.00000
     53       3.7064      0.00000
     54       3.7698      0.00000
     55       3.8698      0.00000
     56       3.9372      0.00000
     57       4.1797      0.00000
     58       4.2369      0.00000
     59       4.6865      0.00000
     60       4.7681      0.00000
     61       4.7834      0.00000
     62       4.8498      0.00000
     63       4.8796      0.00000
     64       5.2495      0.00000
     65       5.3054      0.00000
     66       5.4020      0.00000
     67       6.2131      0.00000
     68       6.2692      0.00000
     69       6.4891      0.00000
     70       6.5927      0.00000
     71       6.7146      0.00000
     72       6.8799      0.00000
     73       7.0191      0.00000
     74       7.1447      0.00000
     75       7.7148      0.00000
     76       7.7729      0.00000
     77       8.1765      0.00000
     78       8.2144      0.00000
     79       8.2394      0.00000
     80       8.4529      0.00000

 k-point     6 :       0.3846    0.0000    0.0000
  band No.  band energies     occupation 
      1     -56.4976      1.00000
      2     -56.4427      1.00000
      3     -56.0095      1.00000
      4     -56.0023      1.00000
      5     -55.3269      1.00000
      6     -55.2636      1.00000
      7     -53.6441      1.00000
      8     -53.5857      1.00000
      9     -53.1991      1.00000
     10     -53.1871      1.00000
     11     -52.8803      1.00000
     12     -52.8100      1.00000
     13     -13.2645      1.00000
     14     -13.2577      1.00000
     15     -12.9561      1.00000
     16     -12.9549      1.00000
     17      -6.6989      1.00000
     18      -6.6290      1.00000
     19      -6.4998      1.00000
     20      -6.4977      1.00000
     21      -5.8831      1.00000
     22      -5.4436      1.00000
     23      -5.4222      1.00000
     24      -4.8075      1.00000
     25      -4.6454      1.00000
     26      -4.1818      1.00000
     27      -4.1137      1.00000
     28      -4.0359      1.00000
     29      -3.9406      1.00000
     30      -3.4583      1.00000
     31      -3.3029      1.00000
     32      -3.2459      1.00000
     33      -3.1697      1.00000
     34      -2.8737      1.00000
     35      -2.5849      1.00000
     36      -2.3550      1.00000
     37      -2.3266      1.00000
     38      -2.2004      1.00000
     39      -1.9071      1.00000
     40      -1.4697      1.00000
     41      -1.2976      0.00000
     42      -1.0092      0.00000
     43      -0.5534      0.00000
     44      -0.2911      0.00000
     45      -0.2179      0.00000
     46       0.3085      0.00000
     47       0.5236      0.00000
     48       0.9649      0.00000
     49       1.3913      0.00000
     50       1.7565      0.00000
     51       2.6467      0.00000
     52       3.1183      0.00000
     53       3.6825      0.00000
     54       3.8073      0.00000
     55       4.3593      0.00000
     56       4.4498      0.00000
     57       4.7230      0.00000
     58       4.7404      0.00000
     59       5.0432      0.00000
     60       5.1665      0.00000
     61       5.2848      0.00000
     62       5.3419      0.00000
     63       5.3866      0.00000
     64       5.5166      0.00000
     65       5.7684      0.00000
     66       5.8972      0.00000
     67       6.0185      0.00000
     68       6.1715      0.00000
     69       6.7583      0.00000
     70       6.7778      0.00000
     71       6.8220      0.00000
     72       6.8671      0.00000
     73       6.8900      0.00000
     74       7.1846      0.00000
     75       7.1974      0.00000
     76       7.2884      0.00000
     77       7.3786      0.00000
     78       7.3944      0.00000
     79       7.6083      0.00000
     80       7.9131      0.00000

 k-point     7 :       0.4615    0.0000    0.0000
  band No.  band energies     occupation 
      1     -56.4797      1.00000
      2     -56.4610      1.00000
      3     -56.0070      1.00000
      4     -56.0046      1.00000
      5     -55.3063      1.00000
      6     -55.2847      1.00000
      7     -53.6251      1.00000
      8     -53.6053      1.00000
      9     -53.1951      1.00000
     10     -53.1910      1.00000
     11     -52.8574      1.00000
     12     -52.8335      1.00000
     13     -13.0457      1.00000
     14     -13.0410      1.00000
     15     -12.9361      1.00000
     16     -12.9340      1.00000
     17      -6.9102      1.00000
     18      -6.8934      1.00000
     19      -6.7767      1.00000
     20      -6.7632      1.00000
     21      -5.6374      1.00000
     22      -5.4927      1.00000
     23      -5.1190      1.00000
     24      -4.8700      1.00000
     25      -4.5347      1.00000
     26      -4.3277      1.00000
     27      -3.9967      1.00000
     28      -3.9583      1.00000
     29      -3.8811      1.00000
     30      -3.5762      1.00000
     31      -3.4084      1.00000
     32      -3.3461      1.00000
     33      -3.2635      1.00000
     34      -3.0680      1.00000
     35      -2.2947      1.00000
     36      -2.2776      1.00000
     37      -2.2146      1.00000
     38      -2.1552      1.00000
     39      -2.0378      1.00000
     40      -1.8442      1.00000
     41      -1.2801      0.00000
     42      -1.1530      0.00000
     43      -0.5994      0.00000
     44      -0.4731      0.00000
     45       0.0320      0.00000
     46       0.2117      0.00000
     47       0.7064      0.00000
     48       0.8610      0.00000
     49       1.5773      0.00000
     50       2.0210      0.00000
     51       2.0775      0.00000
     52       2.5607      0.00000
     53       4.2428      0.00000
     54       4.3564      0.00000
     55       4.9719      0.00000
     56       5.0821      0.00000
     57       5.1059      0.00000
     58       5.2100      0.00000
     59       5.3813      0.00000
     60       5.4330      0.00000
     61       5.4598      0.00000
     62       5.5730      0.00000
     63       5.7562      0.00000
     64       5.7936      0.00000
     65       5.9290      0.00000
     66       6.0319      0.00000
     67       6.1113      0.00000
     68       6.1473      0.00000
     69       6.3301      0.00000
     70       6.3689      0.00000
     71       6.3887      0.00000
     72       6.4319      0.00000
     73       6.9603      0.00000
     74       6.9720      0.00000
     75       7.0090      0.00000
     76       7.0832      0.00000
     77       7.1521      0.00000
     78       7.2128      0.00000
     79       7.3261      0.00000
     80       7.5002      0.00000

 k-point     8 :       0.0769    0.0769    0.0000
  band No.  band energies     occupation 
      1     -56.5420      1.00000
      2     -56.3960      1.00000
      3     -56.0160      1.00000
      4     -55.9968      1.00000
      5     -55.3778      1.00000
      6     -55.2094      1.00000
      7     -53.6907      1.00000
      8     -53.5355      1.00000
      9     -53.2091      1.00000
     10     -53.1774      1.00000
     11     -52.9366      1.00000
     12     -52.7497      1.00000
     13     -14.1046      1.00000
     14     -14.0926      1.00000
     15     -13.4375      1.00000
     16     -13.4264      1.00000
     17      -7.0973      1.00000
     18      -6.8001      1.00000
     19      -6.3176      1.00000
     20      -5.4479      1.00000
     21      -5.2423      1.00000
     22      -5.1442      1.00000
     23      -4.8967      1.00000
     24      -4.2298      1.00000
     25      -4.0048      1.00000
     26      -3.8953      1.00000
     27      -3.8203      1.00000
     28      -3.6878      1.00000
     29      -3.4980      1.00000
     30      -3.2616      1.00000
     31      -3.0885      1.00000
     32      -3.0575      1.00000
     33      -2.7186      1.00000
     34      -2.6910      1.00000
     35      -2.5943      1.00000
     36      -2.4115      1.00000
     37      -2.2160      1.00000
     38      -1.9678      1.00000
     39      -1.4323      0.99534
     40      -1.3056      0.00000
     41      -0.5617      0.00000
     42      -0.4906      0.00000
     43      -0.4205      0.00000
     44      -0.0805      0.00000
     45       0.0137      0.00000
     46       0.2776      0.00000
     47       0.3967      0.00000
     48       0.6925      0.00000
     49       1.9042      0.00000
     50       2.1363      0.00000
     51       2.5717      0.00000
     52       2.6412      0.00000
     53       3.1027      0.00000
     54       3.1343      0.00000
     55       3.5855      0.00000
     56       3.6416      0.00000
     57       3.6858      0.00000
     58       3.7063      0.00000
     59       4.4886      0.00000
     60       4.5875      0.00000
     61       4.6164      0.00000
     62       4.6304      0.00000
     63       4.7259      0.00000
     64       4.8029      0.00000
     65       4.8073      0.00000
     66       4.8757      0.00000
     67       5.0726      0.00000
     68       5.1105      0.00000
     69       5.3511      0.00000
     70       5.3975      0.00000
     71       5.4382      0.00000
     72       5.5072      0.00000
     73       5.7452      0.00000
     74       5.8775      0.00000
     75       6.5406      0.00000
     76       6.6706      0.00000
     77       7.2444      0.00000
     78       7.3103      0.00000
     79       8.3115      0.00000
     80       8.3789      0.00000

 k-point     9 :       0.1538    0.0769    0.0000
  band No.  band energies     occupation 
      1     -56.5359      1.00000
      2     -56.4028      1.00000
      3     -56.0150      1.00000
      4     -55.9976      1.00000
      5     -55.3707      1.00000
      6     -55.2171      1.00000
      7     -53.6844      1.00000
      8     -53.5428      1.00000
      9     -53.2077      1.00000
     10     -53.1787      1.00000
     11     -52.9286      1.00000
     12     -52.7581      1.00000
[...]
  0.001   0.000  -0.000   0.000  -0.000   0.000  -0.002   0.000   0.000   0.000   0.000   0.000   0.000   0.000  -7.700   0.000
  0.000   0.000  -0.000   0.000   0.000   0.000  -0.000   0.000   0.000   0.000  -0.000   0.000  -0.000   0.000  -0.000   0.000
 -0.000   0.000  -0.000   0.000  -0.001   0.000   0.000   0.000   0.000   0.000   0.002   0.000  -0.000   0.000   0.000   0.026
  0.000   0.000  -0.001   0.000  -0.000   0.000  -0.000   0.000   0.002   0.000   0.000   0.000   0.000   0.053   0.000   0.000
  0.000   0.000   0.000   0.000   0.000   0.000   0.000   0.000   0.000   0.000   0.000   0.000  -0.000   0.000   0.000   0.000
  0.000   0.000   0.000   0.000   0.000   0.000   0.000   0.000   0.000   0.000   0.000   0.000  -0.000   0.000   0.000   0.000
 total augmentation occupancy for first ion, spin component:           1
  1.993   0.000   0.000  -0.022   0.000  -0.000   0.000  -0.020   0.000   0.000   0.000   0.000   0.019   0.000  -0.000  -0.000
  0.000   1.993   0.000  -0.000  -0.021   0.000  -0.000  -0.000   0.000  -0.000   0.020   0.000  -0.000  -0.000  -0.000  -0.019
 -0.000   0.000   1.993   0.000  -0.000  -0.022   0.000   0.000   0.000   0.020   0.000   0.000  -0.000   0.000  -0.019   0.000
 -0.022   0.000   0.000   0.186   0.000  -0.000   0.000  -0.248   0.000   0.000   0.000   0.000   0.241   0.000  -0.000   0.000
  0.000  -0.021  -0.000  -0.000   0.172   0.000  -0.000   0.000  -0.000  -0.000   0.235   0.000   0.000   0.000   0.000  -0.230
 -0.000   0.000  -0.022   0.000   0.000   0.186   0.000   0.000   0.000   0.248  -0.000   0.000  -0.000   0.000  -0.241   0.000
  0.000  -0.000   0.000   0.000  -0.000   0.000   1.441   0.000  -0.000   0.000  -0.000  -0.633   0.000   0.000   0.000   0.000
 -0.020   0.000   0.000  -0.248   0.000   0.000   0.000   2.790   0.000   0.000   0.000   0.000  -1.767   0.000  -0.000   0.000
  0.000   0.000   0.000   0.000   0.000   0.000   0.000   0.000   2.092   0.000   0.000   0.000   0.000  -0.944   0.000   0.000
  0.000   0.000   0.020   0.000   0.000   0.248   0.000  -0.000  -0.000   2.790   0.000   0.000   0.000  -0.000  -1.767   0.000
  0.000   0.020   0.000  -0.000   0.235   0.000  -0.000   0.000  -0.000   0.000   3.386   0.000   0.000   0.000   0.000  -2.018
  0.000   0.000   0.000   0.000   0.000   0.000  -0.633   0.000   0.000   0.000   0.000   1.267  -0.000   0.000   0.000  -0.000
  0.019   0.000  -0.000   0.241   0.000  -0.000   0.000  -1.767   0.000   0.000   0.000   0.000   2.016   0.000   0.000   0.000
  0.000   0.000   0.000   0.000  -0.000   0.000   0.000   0.000  -0.944  -0.000  -0.000   0.000   0.000   1.268   0.000   0.000
 -0.000   0.000  -0.019  -0.000   0.000  -0.241   0.000  -0.000  -0.000  -1.767   0.000   0.000  -0.000  -0.000   2.016   0.000
 -0.000  -0.019   0.000   0.000  -0.230   0.000   0.000   0.000   0.000   0.000  -2.018  -0.000   0.000   0.000   0.000   1.919
  0.000   0.000   0.000   0.000   0.000  -0.000   0.000   0.000  -0.043   0.000  -0.000  -0.000   0.000  -0.015   0.000  -0.000
  0.000   0.000  -0.000   0.000   0.000   0.000   0.000   0.000   0.006   0.000   0.000   0.000   0.000  -0.004  -0.000   0.000
 total augmentation occupancy for first ion, spin component:           2
 -0.000   0.000   0.000   0.000  -0.000   0.000   0.000   0.000  -0.000   0.000  -0.000  -0.000   0.000   0.000   0.000   0.000
  0.000   0.000  -0.000  -0.000   0.000   0.000   0.000   0.000   0.000  -0.000   0.000   0.000  -0.000   0.000   0.000   0.000
  0.000  -0.000   0.000   0.000  -0.000  -0.000   0.000   0.000  -0.000  -0.000   0.000  -0.000   0.000   0.000   0.000  -0.000
  0.000  -0.000   0.000   0.000  -0.000   0.000   0.002  -0.000  -0.000   0.000  -0.000  -0.001   0.000   0.000   0.000   0.000
 -0.000   0.000  -0.000  -0.000   0.000  -0.000   0.000  -0.000   0.000  -0.002   0.000   0.000   0.000   0.000   0.002   0.000
  0.000   0.000  -0.000   0.000  -0.000  -0.000   0.000   0.000   0.003   0.000   0.002  -0.000   0.000  -0.001  -0.000  -0.001
  0.000   0.000   0.000   0.002   0.000   0.000   0.000  -0.000   0.000   0.000   0.000   0.000  -0.004   0.000  -0.000   0.000
 -0.000   0.000   0.000   0.000  -0.000   0.000  -0.000  -0.000   0.000   0.000   0.000  -0.010   0.000   0.000   0.000  -0.000
 -0.000   0.000  -0.000  -0.000   0.000   0.003  -0.000   0.000  -0.000   0.004  -0.000   0.000   0.000  -0.000  -0.007  -0.000
  0.000  -0.000  -0.000   0.000  -0.002  -0.000   0.000   0.000   0.004   0.000   0.004  -0.000   0.000   0.013  -0.000  -0.013
 -0.000   0.000   0.000  -0.000   0.000   0.002   0.000   0.000  -0.000   0.004  -0.000   0.000  -0.000  -0.000   0.014   0.000
 -0.000   0.000  -0.000  -0.001   0.000  -0.000  -0.000  -0.010   0.000  -0.000   0.000   0.000   0.007   0.000   0.000   0.000
  0.000  -0.000   0.000   0.000   0.000   0.000  -0.004   0.000   0.000   0.000  -0.000   0.007  -0.000  -0.000   0.000   0.000
  0.000   0.000   0.000   0.000   0.000  -0.001   0.000   0.000   0.000   0.013   0.000   0.000  -0.000   0.000  -0.003   0.000
  0.000   0.000   0.000   0.000   0.002  -0.000  -0.000   0.000  -0.007   0.000   0.014   0.000   0.000  -0.003   0.000  -0.001
  0.000  -0.000  -0.000   0.000  -0.000  -0.001   0.000  -0.000   0.000  -0.013  -0.000   0.000   0.000   0.000  -0.001   0.000
 -0.000  -0.000   0.000  -0.000  -0.000   0.001   0.000   0.000   0.000   0.001   0.000   0.000  -0.000   0.000  -0.002   0.000
  0.000   0.000   0.000   0.000   0.000   0.000   0.000   0.000   0.000  -0.000   0.000   0.000  -0.000   0.000  -0.000   0.000
 total augmentation occupancy for first ion, spin component:           3
  0.000  -0.000   0.000   0.000  -0.000   0.000   0.000   0.000   0.000  -0.000   0.000  -0.000   0.000  -0.000   0.000  -0.000
 -0.000   0.000  -0.000   0.000   0.000   0.000   0.000   0.000   0.000   0.000   0.000  -0.000  -0.000   0.000  -0.000   0.000
  0.000  -0.000   0.000  -0.000   0.000  -0.000  -0.000  -0.000  -0.000   0.000   0.000   0.000   0.000   0.000   0.000  -0.000
  0.000   0.000  -0.000   0.000  -0.000   0.000   0.000   0.000  -0.003   0.000   0.002  -0.000   0.000   0.001  -0.000  -0.001
 -0.000   0.000   0.000  -0.000   0.000   0.000   0.000   0.002   0.000  -0.000   0.000  -0.000  -0.002   0.000   0.000  -0.000
  0.000   0.000   0.000   0.000   0.000   0.000  -0.002   0.000  -0.000   0.000   0.000   0.001   0.000   0.000   0.000  -0.000
  0.000   0.000  -0.000   0.000   0.000  -0.002   0.000  -0.000   0.000  -0.000   0.000   0.000   0.000  -0.000  -0.004  -0.000
  0.000   0.000  -0.000   0.000   0.002   0.000  -0.000   0.000   0.004  -0.000  -0.004   0.000  -0.000   0.013  -0.000   0.013
  0.000   0.000  -0.000  -0.003   0.000  -0.000  -0.000   0.004   0.000  -0.000   0.000   0.000  -0.007   0.000  -0.000   0.000
  0.000   0.000   0.000   0.000  -0.000   0.000  -0.000   0.000  -0.000   0.000   0.000  -0.010   0.000  -0.000   0.000  -0.000
  0.000   0.000   0.000   0.002   0.000   0.000  -0.000  -0.004   0.000   0.000   0.000   0.000  -0.014   0.000  -0.000   0.000
 -0.000  -0.000   0.000  -0.000  -0.000   0.001   0.000   0.000   0.000  -0.010  -0.000  -0.000  -0.000   0.000   0.007   0.000
  0.000  -0.000   0.000   0.000  -0.002   0.000   0.000  -0.000  -0.007  -0.000  -0.014  -0.000   0.000  -0.003   0.000   0.001
 -0.000   0.000   0.000   0.001   0.000   0.000  -0.000   0.013   0.000  -0.000   0.000  -0.000  -0.003   0.000   0.000   0.000
 -0.000  -0.000   0.000  -0.000   0.000   0.000  -0.004   0.000  -0.000  -0.000  -0.000   0.007   0.000   0.000   0.000   0.000
 -0.000   0.000  -0.000  -0.001   0.000  -0.000   0.000   0.013   0.000  -0.000   0.000   0.000   0.001   0.000   0.000   0.000
 -0.000   0.000  -0.000  -0.001  -0.000  -0.000   0.000   0.001   0.000  -0.000   0.000   0.000  -0.002   0.000   0.000   0.000
 -0.000   0.000   0.000  -0.000   0.000   0.000   0.000  -0.000   0.000  -0.000   0.000   0.000  -0.000   0.000   0.000   0.000
 total augmentation occupancy for first ion, spin component:           4
 -0.002  -0.000   0.000  -0.007   0.000  -0.000   0.000   0.001   0.000   0.000   0.000   0.000  -0.001   0.000  -0.000   0.000
  0.000  -0.002  -0.000   0.000  -0.006   0.000   0.000   0.000   0.000  -0.000  -0.000  -0.000   0.000   0.000   0.000   0.001
 -0.000   0.000  -0.002   0.000   0.000  -0.007   0.000   0.000   0.000  -0.001   0.000   0.000  -0.000   0.000   0.001   0.000
 -0.007   0.000   0.000   0.008   0.000  -0.000   0.000  -0.061   0.000   0.000  -0.000   0.000   0.037   0.000  -0.000   0.000
  0.000  -0.006   0.000   0.000   0.016   0.000  -0.000   0.000   0.000  -0.000   0.082  -0.000   0.000   0.000   0.000  -0.052
 -0.000  -0.000  -0.007   0.000  -0.000   0.008   0.000   0.000   0.000   0.061   0.000   0.000  -0.000   0.000  -0.037   0.000
  0.000   0.000   0.000   0.000  -0.000   0.000   0.941   0.000   0.000   0.000  -0.000  -0.303   0.000   0.000   0.000   0.000
  0.001   0.000   0.000  -0.061   0.000   0.000   0.000   1.963   0.000   0.000   0.000  -0.000  -0.689   0.000   0.000   0.000
  0.000   0.000   0.000   0.000  -0.000   0.000   0.000   0.000   1.408   0.000  -0.000   0.000   0.000  -0.543   0.000   0.000
  0.000  -0.000  -0.001   0.000   0.000   0.061   0.000  -0.000  -0.000   1.963   0.000   0.000  -0.000   0.000  -0.689   0.000
  0.000  -0.000   0.000   0.000   0.082   0.000  -0.000   0.000   0.000   0.000   2.707   0.000   0.000  -0.000   0.000  -1.108
  0.000  -0.000   0.000   0.000  -0.000   0.000  -0.303   0.000   0.000  -0.000   0.000  -0.135   0.000   0.000   0.000  -0.000
 -0.001   0.000  -0.000   0.037   0.000  -0.000   0.000  -0.689   0.000  -0.000   0.000   0.000   0.033   0.000   0.000   0.000
  0.000   0.000   0.000   0.000   0.000   0.000   0.000   0.000  -0.543  -0.000   0.000   0.000   0.000   0.030   0.000   0.000
 -0.000   0.000   0.001  -0.000   0.000  -0.037   0.000   0.000   0.000  -0.689   0.000   0.000  -0.000   0.000   0.033   0.000
  0.000   0.001   0.000   0.000  -0.052   0.000   0.000   0.000   0.000   0.000  -1.108  -0.000   0.000   0.000  -0.000   0.311
 -0.000   0.000  -0.000   0.000  -0.000   0.000   0.000   0.000   0.034   0.000   0.000   0.000   0.000   0.015   0.000   0.000
  0.000  -0.000   0.000   0.000   0.000   0.000  -0.000   0.000   0.001   0.000   0.000   0.000   0.000  -0.000   0.000   0.000


------------------------ aborting loop because EDIFF is reached ----------------------------------------





 total charge     

# of ion     s       p       d       tot
----------------------------------------
  1        0.323   6.339   6.133  12.795
  2        0.323   6.339   6.133  12.795
  3        1.382   1.948   0.063   3.394
  4        1.382   1.948   0.063   3.394
------------------------------------------------
tot        3.411  16.574  12.392  32.376



 magnetization (x)

# of ion     s       p       d       tot
----------------------------------------
  1        0.003  -0.000   0.002   0.005
  2       -0.003   0.000  -0.002  -0.005
  3        0.000   0.001   0.000   0.002
  4       -0.000  -0.001  -0.000  -0.002
------------------------------------------------
tot       -0.000   0.000   0.000   0.000



 magnetization (y)

# of ion     s       p       d       tot
----------------------------------------
  1        0.001  -0.000  -0.001   0.000
  2       -0.001   0.000   0.001  -0.000
  3       -0.000   0.001  -0.000   0.001
  4        0.000  -0.001   0.000  -0.000
------------------------------------------------
tot       -0.000   0.000  -0.000   0.000



 magnetization (z)

# of ion     s       p       d       tot
----------------------------------------
  1        0.013   0.019   2.174   2.207
  2        0.013   0.019   2.174   2.207
  3       -0.001  -0.057   0.003  -0.056
  4       -0.001  -0.057   0.003  -0.056
------------------------------------------------
tot        0.024  -0.077   4.354   4.302



--------------------------------------------------------------------------------------------------------



  FREE ENERGIE OF THE ION-ELECTRON SYSTEM (eV)
  ---------------------------------------------------
  free  energy   TOTEN  =       -23.19360032 eV

  energy  without entropy=      -23.19322796  energy(sigma->0) =      -23.19341414



--------------------------------------------------------------------------------------------------------




--------------------------------------------------------------------------------------------------------


     LOOP+:  cpu time 1475.8280: real time 1476.8032
    4ORBIT:  cpu time    0.0000: real time    0.0000

 Spin-Orbit-Coupling matrix elements

 Ion:    1  E_soc:     -0.0367615
 l=   1
     0.0000000    -0.0045303    -0.0044715
    -0.0045303     0.0000000    -0.0045303
    -0.0044715    -0.0045303     0.0000000
 l=   2
     0.0000000    -0.0003327     0.0000000    -0.0003327    -0.0016644
    -0.0003327     0.0000000    -0.0008933    -0.0002461    -0.0002431
     0.0000000    -0.0008933     0.0000000    -0.0008933     0.0000000
    -0.0003327    -0.0002461    -0.0008933     0.0000000    -0.0002431
    -0.0016644    -0.0002431     0.0000000    -0.0002431     0.0000000
 l=   3
     0.0000000     0.0000000     0.0000000     0.0000000     0.0000000     0.0000000     0.0000000
     0.0000000     0.0000000     0.0000000     0.0000000     0.0000000     0.0000000     0.0000000
     0.0000000     0.0000000     0.0000000     0.0000000     0.0000000     0.0000000     0.0000000
     0.0000000     0.0000000     0.0000000     0.0000000     0.0000000     0.0000000     0.0000000
     0.0000000     0.0000000     0.0000000     0.0000000     0.0000000     0.0000000     0.0000000
     0.0000000     0.0000000     0.0000000     0.0000000     0.0000000     0.0000000     0.0000000
     0.0000000     0.0000000     0.0000000     0.0000000     0.0000000     0.0000000     0.0000000

 Ion:    2  E_soc:     -0.0367615
 l=   1
     0.0000000    -0.0045303    -0.0044715
    -0.0045303     0.0000000    -0.0045303
    -0.0044715    -0.0045303     0.0000000
 l=   2
     0.0000000    -0.0003327     0.0000000    -0.0003327    -0.0016644
    -0.0003327     0.0000000    -0.0008933    -0.0002461    -0.0002431
     0.0000000    -0.0008933     0.0000000    -0.0008933     0.0000000
    -0.0003327    -0.0002461    -0.0008933     0.0000000    -0.0002431
    -0.0016644    -0.0002431     0.0000000    -0.0002431     0.0000000
 l=   3
     0.0000000     0.0000000     0.0000000     0.0000000     0.0000000     0.0000000     0.0000000
     0.0000000     0.0000000     0.0000000     0.0000000     0.0000000     0.0000000     0.0000000
     0.0000000     0.0000000     0.0000000     0.0000000     0.0000000     0.0000000     0.0000000
     0.0000000     0.0000000     0.0000000     0.0000000     0.0000000     0.0000000     0.0000000
     0.0000000     0.0000000     0.0000000     0.0000000     0.0000000     0.0000000     0.0000000
     0.0000000     0.0000000     0.0000000     0.0000000     0.0000000     0.0000000     0.0000000
     0.0000000     0.0000000     0.0000000     0.0000000     0.0000000     0.0000000     0.0000000

 Ion:    3  E_soc:     -0.2083273
 l=   1
     0.0000000    -0.0337172    -0.0363139
    -0.0337172     0.0000000    -0.0337172
    -0.0363139    -0.0337172     0.0000000
 l=   2
     0.0000000    -0.0000266     0.0000000    -0.0000266    -0.0001164
    -0.0000266     0.0000000    -0.0000955     0.0000138    -0.0000343
     0.0000000    -0.0000955     0.0000000    -0.0000955     0.0000000
    -0.0000266     0.0000138    -0.0000955     0.0000000    -0.0000343
    -0.0001164    -0.0000343     0.0000000    -0.0000343     0.0000000
 l=   3
     0.0000000     0.0000000     0.0000000     0.0000000     0.0000000     0.0000000     0.0000000
     0.0000000     0.0000000     0.0000000     0.0000000     0.0000000     0.0000000     0.0000000
     0.0000000     0.0000000     0.0000000     0.0000000     0.0000000     0.0000000     0.0000000
     0.0000000     0.0000000     0.0000000     0.0000000     0.0000000     0.0000000     0.0000000
     0.0000000     0.0000000     0.0000000     0.0000000     0.0000000     0.0000000     0.0000000
     0.0000000     0.0000000     0.0000000     0.0000000     0.0000000     0.0000000     0.0000000
     0.0000000     0.0000000     0.0000000     0.0000000     0.0000000     0.0000000     0.0000000

 Ion:    4  E_soc:     -0.2083273
 l=   1
     0.0000000    -0.0337172    -0.0363139
    -0.0337172     0.0000000    -0.0337172
    -0.0363139    -0.0337172     0.0000000
 l=   2
     0.0000000    -0.0000266     0.0000000    -0.0000266    -0.0001164
    -0.0000266     0.0000000    -0.0000955     0.0000138    -0.0000343
     0.0000000    -0.0000955     0.0000000    -0.0000955     0.0000000
    -0.0000266     0.0000138    -0.0000955     0.0000000    -0.0000343
    -0.0001164    -0.0000343     0.0000000    -0.0000343     0.0000000
 l=   3
     0.0000000     0.0000000     0.0000000     0.0000000     0.0000000     0.0000000     0.0000000
     0.0000000     0.0000000     0.0000000     0.0000000     0.0000000     0.0000000     0.0000000
     0.0000000     0.0000000     0.0000000     0.0000000     0.0000000     0.0000000     0.0000000
     0.0000000     0.0000000     0.0000000     0.0000000     0.0000000     0.0000000     0.0000000
     0.0000000     0.0000000     0.0000000     0.0000000     0.0000000     0.0000000     0.0000000
     0.0000000     0.0000000     0.0000000     0.0000000     0.0000000     0.0000000     0.0000000
     0.0000000     0.0000000     0.0000000     0.0000000     0.0000000     0.0000000     0.0000000



 total charge     

# of ion     s       p       d       tot
----------------------------------------
  1        0.323   6.339   6.133  12.795
  2        0.323   6.339   6.133  12.795
  3        1.382   1.948   0.063   3.394
  4        1.382   1.948   0.063   3.394
------------------------------------------------
tot        3.411  16.574  12.392  32.376



 magnetization (x)

# of ion     s       p       d       tot
----------------------------------------
  1        0.003  -0.000   0.002   0.005
  2       -0.003   0.000  -0.002  -0.005
  3        0.000   0.001   0.000   0.002
  4       -0.000  -0.001  -0.000  -0.002
------------------------------------------------
tot       -0.000   0.000   0.000   0.000



 magnetization (y)

# of ion     s       p       d       tot
----------------------------------------
  1        0.001  -0.000  -0.001   0.000
  2       -0.001   0.000   0.001  -0.000
  3       -0.000   0.001  -0.000   0.001
  4        0.000  -0.001   0.000  -0.000
------------------------------------------------
tot       -0.000   0.000  -0.000   0.000



 magnetization (z)

# of ion     s       p       d       tot
----------------------------------------
  1        0.013   0.019   2.174   2.207
  2        0.013   0.019   2.174   2.207
  3       -0.001  -0.057   0.003  -0.056
  4       -0.001  -0.057   0.003  -0.056
------------------------------------------------
tot        0.024  -0.077   4.354   4.302


 total amount of memory used by VASP on root node   316753. kBytes
========================================================================

   base      :      30000. kBytes
   nonl-proj :     146786. kBytes
   fftplans  :       8384. kBytes
   grid      :      49766. kBytes
   one-center:        248. kBytes
   wavefun   :      81569. kBytes

  
  
 General timing and accounting informations for this job:
 ========================================================
  
                  Total CPU time used (sec):     1496.640
                            User time (sec):     1379.388
                          System time (sec):      117.252
                         Elapsed time (sec):     1500.110
  
                   Maximum memory used (kb):      523988.
                   Average memory used (kb):           0.
  
                          Minor page faults:     32582807
                          Major page faults:            5
                 Voluntary context switches:         2628
